 vasp.5.4.4.18Apr17-6-g9f103f2a35 (build Jan 13 2019 13:55:41) complex          
  
 executed on             LinuxIFC date 2020.06.26  16:33:25
 running on   16 total cores
 distrk:  each k-point on   16 cores,    1 groups
 distr:  one band on NCORES_PER_BAND=   1 cores,   16 groups


--------------------------------------------------------------------------------------------------------


 INCAR:
 POTCAR:    PAW_PBE Ni_pv 06Sep2000               
 POTCAR:    PAW_PBE O 08Apr2002                   

 ----------------------------------------------------------------------------- 
|                                                                             |
|           W    W    AA    RRRRR   N    N  II  N    N   GGGG   !!!           |
|           W    W   A  A   R    R  NN   N  II  NN   N  G    G  !!!           |
|           W    W  A    A  R    R  N N  N  II  N N  N  G       !!!           |
|           W WW W  AAAAAA  RRRRR   N  N N  II  N  N N  G  GGG   !            |
|           WW  WW  A    A  R   R   N   NN  II  N   NN  G    G                |
|           W    W  A    A  R    R  N    N  II  N    N   GGGG   !!!           |
|                                                                             |
|      For optimal performance we recommend to set                            |
|        NCORE= 4 - approx SQRT( number of cores)                             |
|      NCORE specifies how many cores store one orbital (NPAR=cpu/NCORE).     |
|      This setting can  greatly improve the performance of VASP for DFT.     |
|      The default,   NCORE=1            might be grossly inefficient         |
|      on modern multi-core architectures or massively parallel machines.     |
|      Do your own testing !!!!                                               |
|      Unfortunately you need to use the default for GW and RPA calculations. |
|      (for HF NCORE is supported but not extensively tested yet)             |
|                                                                             |
 ----------------------------------------------------------------------------- 

 POTCAR:    PAW_PBE Ni_pv 06Sep2000               
   VRHFIN =Ni:                                                                  
   LEXCH  = PE                                                                  
   EATOM  =  3501.1230 eV,  257.3253 Ry                                         
                                                                                
   TITEL  = PAW_PBE Ni_pv 06Sep2000                                             
   LULTRA =        F    use ultrasoft PP ?                                      
   IUNSCR =        1    unscreen: 0-lin 1-nonlin 2-no                           
   RPACOR =    1.500    partial core radius                                     
   POMASS =   58.690; ZVAL   =   16.000    mass and valenz                      
   RCORE  =    2.000    outmost cutoff radius                                   
   RWIGS  =    2.000; RWIGS  =    1.058    wigner-seitz radius (au A)           
   ENMAX  =  367.986; ENMIN  =  275.989 eV                                      
   RCLOC  =    1.301    cutoff for local pot                                    
   LCOR   =        T    correct aug charges                                     
   LPAW   =        T    paw PP                                                  
   EAUG   =  703.443                                                            
   DEXC   =    0.000                                                            
   RMAX   =    2.041    core radius for proj-oper                               
   RAUG   =    1.300    factor for augmentation sphere                          
   RDEP   =    2.103    radius for radial grids                                 
   RDEPT  =    1.618    core radius for aug-charge                              
                                                                                
   Atomic configuration                                                         
    8 entries                                                                   
     n  l   j            E        occ.                                          
     1  0  0.50     -8206.4253   2.0000                                         
     2  0  0.50      -976.1748   2.0000                                         
     2  1  1.50      -839.0571   6.0000                                         
     3  0  0.50      -105.9991   2.0000                                         
     3  1  1.50       -66.4603   6.0000                                         
     3  2  2.50        -4.6458   9.0000                                         
     4  0  0.50        -4.4926   1.0000                                         
     4  3  2.50        -1.3606   0.0000                                         
   Description                                                                  
     l       E           TYP  RCUT    TYP  RCUT                                 
     1    -66.4602962     23  1.700                                             
     1     -1.3605826     23  1.700                                             
     2     -4.6457867     23  2.000                                             
     2     -6.0063693     23  2.000                                             
     0     -4.4925576     23  1.900                                             
     0     16.3626226     23  1.900                                             
  local pseudopotential read in
  partial core-charges read in
  partial kinetic energy density read in
  atomic valenz-charges read in
  non local Contribution for L=           1  read in
    real space projection operators read in
  non local Contribution for L=           1  read in
    real space projection operators read in
  non local Contribution for L=           2  read in
    real space projection operators read in
  non local Contribution for L=           2  read in
    real space projection operators read in
  non local Contribution for L=           0  read in
    real space projection operators read in
  non local Contribution for L=           0  read in
    real space projection operators read in
    PAW grid and wavefunctions read in
 
   number of l-projection  operators is LMAX  =           6
   number of lm-projection operators is LMMAX =          18
 
 POTCAR:    PAW_PBE O 08Apr2002                   
   VRHFIN =O: s2p4                                                              
   LEXCH  = PE                                                                  
   EATOM  =   432.3788 eV,   31.7789 Ry                                         
                                                                                
   TITEL  = PAW_PBE O 08Apr2002                                                 
   LULTRA =        F    use ultrasoft PP ?                                      
   IUNSCR =        1    unscreen: 0-lin 1-nonlin 2-no                           
   RPACOR =    1.200    partial core radius                                     
   POMASS =   16.000; ZVAL   =    6.000    mass and valenz                      
   RCORE  =    1.520    outmost cutoff radius                                   
   RWIGS  =    1.550; RWIGS  =    0.820    wigner-seitz radius (au A)           
   ENMAX  =  400.000; ENMIN  =  300.000 eV                                      
   ICORE  =        2    local potential                                         
   LCOR   =        T    correct aug charges                                     
   LPAW   =        T    paw PP                                                  
   EAUG   =  605.392                                                            
   DEXC   =    0.000                                                            
   RMAX   =    1.553    core radius for proj-oper                               
   RAUG   =    1.300    factor for augmentation sphere                          
   RDEP   =    1.550    radius for radial grids                                 
   RDEPT  =    1.329    core radius for aug-charge                              
                                                                                
   Atomic configuration                                                         
    4 entries                                                                   
     n  l   j            E        occ.                                          
     1  0  0.50      -514.6923   2.0000                                         
     2  0  0.50       -23.9615   2.0000                                         
     2  1  0.50        -9.0305   4.0000                                         
     3  2  1.50        -9.5241   0.0000                                         
   Description                                                                  
     l       E           TYP  RCUT    TYP  RCUT                                 
     0    -23.9615318     23  1.200                                             
     0     -9.5240782     23  1.200                                             
     1     -9.0304911     23  1.520                                             
     1      8.1634956     23  1.520                                             
     2     -9.5240782      7  1.500                                             
  local pseudopotential read in
  partial core-charges read in
  partial kinetic energy density read in
  kinetic energy density of atom read in
  atomic valenz-charges read in
  non local Contribution for L=           0  read in
    real space projection operators read in
  non local Contribution for L=           0  read in
    real space projection operators read in
  non local Contribution for L=           1  read in
    real space projection operators read in
  non local Contribution for L=           1  read in
    real space projection operators read in
    PAW grid and wavefunctions read in
 
   number of l-projection  operators is LMAX  =           4
   number of lm-projection operators is LMMAX =           8
 
  PAW_PBE Ni_pv 06Sep2000               :
 energy of atom  1       EATOM=-3501.1230
 kinetic energy error for atom=    0.0925 (will be added to EATOM!!)
  PAW_PBE O 08Apr2002                   :
 energy of atom  2       EATOM= -432.3788
 kinetic energy error for atom=    0.0389 (will be added to EATOM!!)
 
 
 POSCAR: NiO                                     
  positions in cartesian coordinates
  No initial velocities read in
 exchange correlation table for  LEXCH =        8
   RHO(1)=    0.500       N(1)  =     2000
   RHO(2)=  100.500       N(2)  =     4000
 


--------------------------------------------------------------------------------------------------------


 ion  position               nearest neighbor table
   1  0.000  0.000  0.000-   4 2.08   4 2.08   4 2.08   3 2.08   3 2.08   3 2.08
   2  0.500  0.500  0.500-   3 2.08   3 2.08   3 2.08   4 2.08   4 2.08   4 2.08
   3  0.250  0.250  0.250-   1 2.08   1 2.08   1 2.08   2 2.08   2 2.08   2 2.08
   4  0.750  0.750  0.750-   2 2.08   2 2.08   2 2.08   1 2.08   1 2.08   1 2.08
 

IMPORTANT INFORMATION: All symmetrisations will be switched off!
NOSYMM: (Re-)initialisation of all symmetry stuff for point group C_1.

 
 
 KPOINTS: k-points                                

Automatic generation of k-mesh.
Space group operators:
 irot       det(A)        alpha          n_x          n_y          n_z        tau_x        tau_y        tau_z
    1     1.000000     0.000000     1.000000     0.000000     0.000000     0.000000     0.000000     0.000000
 
 Subroutine IBZKPT returns following result:
 ===========================================
 
 Found      8 irreducible k-points:
 
 Following reciprocal coordinates:
            Coordinates               Weight
  0.000000  0.000000  0.000000      1.000000
  0.500000 -0.000000 -0.000000      1.000000
 -0.000000  0.500000 -0.000000      1.000000
  0.500000  0.500000  0.000000      1.000000
 -0.000000 -0.000000  0.500000      1.000000
  0.500000 -0.000000  0.500000      1.000000
 -0.000000  0.500000  0.500000      1.000000
  0.500000  0.500000  0.500000      1.000000
 
 Following cartesian coordinates:
            Coordinates               Weight
  0.000000  0.000000  0.000000      1.000000
  0.750000 -0.250000 -0.250000      1.000000
 -0.250000  0.750000 -0.250000      1.000000
  0.500000  0.500000 -0.500000      1.000000
 -0.250000 -0.250000  0.750000      1.000000
  0.500000 -0.500000  0.500000      1.000000
 -0.500000  0.500000  0.500000      1.000000
  0.250000  0.250000  0.250000      1.000000
 
 TETIRR: Found     24 inequivalent tetrahedra from       48


--------------------------------------------------------------------------------------------------------




 Dimension of arrays:
   k-points           NKPTS =      8   k-points in BZ     NKDIM =      8   number of bands    NBANDS=     32
   number of dos      NEDOS =    301   number of ions     NIONS =      4
   non local maximal  LDIM  =      6   non local SUM 2l+1 LMDIM =     18
   total plane-waves  NPLWV =  21952
   max r-space proj   IRMAX =      1   max aug-charges    IRDMAX=  13566
   dimension x,y,z NGX =    28 NGY =   28 NGZ =   28
   dimension x,y,z NGXF=    56 NGYF=   56 NGZF=   56
   support grid    NGXF=    56 NGYF=   56 NGZF=   56
   ions per type =               2   2
   NGX,Y,Z   is equivalent  to a cutoff of   9.11,  9.11,  9.11 a.u.
   NGXF,Y,Z  is equivalent  to a cutoff of  18.23, 18.23, 18.23 a.u.

 SYSTEM =  "NiO"                                   
 POSCAR =  NiO                                     

 Startparameter for this run:
   NWRITE =      2    write-flag & timer
   PREC   = normal    normal or accurate (medium, high low for compatibility)
   ISTART =      0    job   : 0-new  1-cont  2-samecut
   ICHARG =      2    charge: 1-file 2-atom 10-const
   ISPIN  =      2    spin polarized calculation?
   LNONCOLLINEAR =      F non collinear calculations
   LSORBIT =      F    spin-orbit coupling
   INIWAV =      1    electr: 0-lowe 1-rand  2-diag
   LASPH  =      F    aspherical Exc in radial PAW
   METAGGA=      F    non-selfconsistent MetaGGA calc.

 Electronic Relaxation 1
   ENCUT  =  450.0 eV  33.07 Ry    5.75 a.u.   8.83  8.83  8.83*2*pi/ulx,y,z
   ENINI  =  450.0     initial cutoff
   ENAUG  =  703.4 eV  augmentation charge cutoff
   NELM   =     60;   NELMIN=  6; NELMDL= -5     # of ELM steps 
   EDIFF  = 0.1E-04   stopping-criterion for ELM
   LREAL  =      F    real-space projection
   NLSPLINE    = F    spline interpolate recip. space projectors
   LCOMPAT=      F    compatible to vasp.4.4
   GGA_COMPAT  = T    GGA compatible to vasp.4.4-vasp.4.6
   LMAXPAW     = -100 max onsite density
   LMAXMIX     =    4 max onsite mixed and CHGCAR
   VOSKOWN=      0    Vosko Wilk Nusair interpolation
   ROPT   =    0.00000   0.00000
 Ionic relaxation
   EDIFFG = 0.1E-03   stopping-criterion for IOM
   NSW    =      0    number of steps for IOM
   NBLOCK =      1;   KBLOCK =      1    inner block; outer block 
   IBRION =     -1    ionic relax: 0-MD 1-quasi-New 2-CG
   NFREE  =      0    steps in history (QN), initial steepest desc. (CG)
   ISIF   =      2    stress and relaxation
   IWAVPR =     10    prediction:  0-non 1-charg 2-wave 3-comb
   ISYM   =     -1    0-nonsym 1-usesym 2-fastsym
   LCORR  =      T    Harris-Foulkes like correction to forces

   POTIM  = 0.5000    time-step for ionic-motion
   TEIN   =    0.0    initial temperature
   TEBEG  =    0.0;   TEEND  =   0.0 temperature during run
   SMASS  =  -3.00    Nose mass-parameter (am)
   estimated Nose-frequenzy (Omega)   =  0.10E-29 period in steps =****** mass=  -0.596E-27a.u.
   SCALEE = 1.0000    scale energy and forces
   NPACO  =    256;   APACO  = 16.0  distance and # of slots for P.C.
   PSTRESS=    0.0 pullay stress

  Mass of Ions in am
   POMASS =  58.69 16.00
  Ionic Valenz
   ZVAL   =  16.00  6.00
  Atomic Wigner-Seitz radii
   RWIGS  =  -1.00 -1.00
  virtual crystal weights 
   VCA    =   1.00  1.00
   NELECT =      44.0000    total number of electrons
   NUPDOWN=      -1.0000    fix difference up-down

 DOS related values:
   EMIN   =  10.00;   EMAX   =-10.00  energy-range for DOS
   EFERMI =   0.00
   ISMEAR =    -5;   SIGMA  =   0.20  broadening in eV -4-tet -1-fermi 0-gaus

 Electronic relaxation 2 (details)
   IALGO  =     38    algorithm
   LDIAG  =      T    sub-space diagonalisation (order eigenvalues)
   LSUBROT=      F    optimize rotation matrix (better conditioning)
   TURBO    =      0    0=normal 1=particle mesh
   IRESTART =      0    0=no restart 2=restart with 2 vectors
   NREBOOT  =      0    no. of reboots
   NMIN     =      0    reboot dimension
   EREF     =   0.00    reference energy to select bands
   IMIX   =      4    mixing-type and parameters
     AMIX     =   0.20;   BMIX     =  0.00
     AMIX_MAG =   0.80;   BMIX_MAG =  0.00
     AMIN     =   0.10
     WC   =   100.;   INIMIX=   1;  MIXPRE=   1;  MAXMIX= -45

 Intra band minimization:
   WEIMIN = 0.0000     energy-eigenvalue tresh-hold
   EBREAK =  0.78E-07  absolut break condition
   DEPER  =   0.30     relativ break condition  

   TIME   =   0.40     timestep for ELM

  volume/ion in A,a.u.               =       9.06        61.17
  Fermi-wavevector in a.u.,A,eV,Ry     =   1.746223  3.299883 41.488167  3.049294
  Thomas-Fermi vector in A             =   2.817758
 
 Write flags
   LWAVE        =      T    write WAVECAR
   LDOWNSAMPLE  =      F    k-point downsampling of WAVECAR
   LCHARG       =      F    write CHGCAR
   LVTOT        =      F    write LOCPOT, total local potential
   LVHAR        =      F    write LOCPOT, Hartree potential only
   LELF         =      F    write electronic localiz. function (ELF)
   LORBIT       =     11    0 simple, 1 ext, 2 COOP (PROOUT), +10 PAW based schemes


 Dipole corrections
   LMONO  =      F    monopole corrections only (constant potential shift)
   LDIPOL =      F    correct potential (dipole corrections)
   IDIPOL =      0    1-x, 2-y, 3-z, 4-all directions 
   EPSILON=  1.0000000 bulk dielectric constant

 LDA+U is selected, type is set to LDAUTYPE =  2
   angular momentum for each species LDAUL =     2   -1
   U (eV)           for each species LDAUU =   5.0  0.0
   J (eV)           for each species LDAUJ =   0.0  0.0
 Exchange correlation treatment:
   GGA     =    --    GGA type
   LEXCH   =     8    internal setting for exchange type
   VOSKOWN=      0    Vosko Wilk Nusair interpolation
   LHFCALC =     F    Hartree Fock is set to
   LHFONE  =     F    Hartree Fock one center treatment
   AEXX    =    0.0000 exact exchange contribution

 Linear response parameters
   LEPSILON=     F    determine dielectric tensor
   LRPA    =     F    only Hartree local field effects (RPA)
   LNABLA  =     F    use nabla operator in PAW spheres
   LVEL    =     F    velocity operator in full k-point grid
   LINTERFAST=   F  fast interpolation
   KINTER  =     0    interpolate to denser k-point grid
   CSHIFT  =0.1000    complex shift for real part using Kramers Kronig
   OMEGAMAX=  -1.0    maximum frequency
   DEG_THRESHOLD= 0.2000000E-02 threshold for treating states as degnerate
   RTIME   =   -0.100 relaxation time in fs
  (WPLASMAI=    0.000 imaginary part of plasma frequency in eV, 0.658/RTIME)
   DFIELD  = 0.0000000 0.0000000 0.0000000 field for delta impulse in time
 
 Orbital magnetization related:
   ORBITALMAG=     F  switch on orbital magnetization
   LCHIMAG   =     F  perturbation theory with respect to B field
   DQ        =  0.001000  dq finite difference perturbation B field
   LLRAUG    =     F  two centre corrections for induced B field



--------------------------------------------------------------------------------------------------------


 Static calculation
 charge density and potential will be updated during run
 spin polarized calculation
 Variant of blocked Davidson
 Davidson routine will perform the subspace rotation
 perform sub-space diagonalisation
    after iterative eigenvector-optimisation
 modified Broyden-mixing scheme, WC =      100.0
 initial mixing is a Kerker type mixing with AMIX =  0.2000 and BMIX =      0.0000
 Hartree-type preconditioning will be used
 using additional bands           10
 reciprocal scheme for non local part
 use partial core corrections
 calculate Harris-corrections to forces 
   (improved forces if not selfconsistent)
 use gradient corrections 
 use of overlap-Matrix (Vanderbilt PP)
 Fermi weights with tetrahedron method with Bloechl corrections


--------------------------------------------------------------------------------------------------------


  energy-cutoff  :      450.00
  volume of cell :       36.26
      direct lattice vectors                 reciprocal lattice vectors
     4.170000000  2.085000000  2.085000000     0.359712230 -0.119904077 -0.119904077
     2.085000000  4.170000000  2.085000000    -0.119904077  0.359712230 -0.119904077
     2.085000000  2.085000000  4.170000000    -0.119904077 -0.119904077  0.359712230

  length of vectors
     5.107186114  5.107186114  5.107186114     0.397676833  0.397676833  0.397676833


 
 k-points in units of 2pi/SCALE and weight: k-points                                
   0.00000000  0.00000000  0.00000000       0.125
   0.75000000 -0.25000000 -0.25000000       0.125
  -0.25000000  0.75000000 -0.25000000       0.125
   0.50000000  0.50000000 -0.50000000       0.125
  -0.25000000 -0.25000000  0.75000000       0.125
   0.50000000 -0.50000000  0.50000000       0.125
  -0.50000000  0.50000000  0.50000000       0.125
   0.25000000  0.25000000  0.25000000       0.125
 
 k-points in reciprocal lattice and weights: k-points                                
   0.00000000  0.00000000  0.00000000       0.125
   0.50000000 -0.00000000 -0.00000000       0.125
  -0.00000000  0.50000000 -0.00000000       0.125
   0.50000000  0.50000000  0.00000000       0.125
  -0.00000000 -0.00000000  0.50000000       0.125
   0.50000000 -0.00000000  0.50000000       0.125
  -0.00000000  0.50000000  0.50000000       0.125
   0.50000000  0.50000000  0.50000000       0.125
 
 position of ions in fractional coordinates (direct lattice) 
   0.00000000  0.00000000  0.00000000
   0.50000000  0.50000000  0.50000000
   0.25000000  0.25000000  0.25000000
   0.75000000  0.75000000  0.75000000
 
 position of ions in cartesian coordinates  (Angst):
   0.00000000  0.00000000  0.00000000
   4.17000000  4.17000000  4.17000000
   2.08500000  2.08500000  2.08500000
   6.25500000  6.25500000  6.25500000
 


--------------------------------------------------------------------------------------------------------


 k-point  1 :   0.0000 0.0000 0.0000  plane waves:     803
 k-point  2 :   0.5000-0.0000-0.0000  plane waves:     790
 k-point  3 :  -0.0000 0.5000-0.0000  plane waves:     790
 k-point  4 :   0.5000 0.5000 0.0000  plane waves:     780
 k-point  5 :  -0.0000-0.0000 0.5000  plane waves:     790
 k-point  6 :   0.5000-0.0000 0.5000  plane waves:     780
 k-point  7 :  -0.0000 0.5000 0.5000  plane waves:     780
 k-point  8 :   0.5000 0.5000 0.5000  plane waves:     772

 maximum and minimum number of plane-waves per node :       803      772

 maximum number of plane-waves:       803
 maximum index in each direction: 
   IXMAX=    8   IYMAX=    8   IZMAX=    8
   IXMIN=   -9   IYMIN=   -9   IZMIN=   -9


 serial   3D FFT for wavefunctions
 parallel 3D FFT for charge:
    minimum data exchange during FFTs selected (reduces bandwidth)


 total amount of memory used by VASP MPI-rank0    35836. kBytes
=======================================================================

   base      :      30000. kBytes
   nonl-proj :       1932. kBytes
   fftplans  :        517. kBytes
   grid      :       2813. kBytes
   one-center:        124. kBytes
   wavefun   :        450. kBytes
 
     INWAV:  cpu time    0.0000: real time    0.0000
 Broyden mixing: mesh for mixing (old mesh)
   NGX = 17   NGY = 17   NGZ = 17
  (NGX  = 56   NGY  = 56   NGZ  = 56)
  gives a total of   4913 points

 initial charge density was supplied:
 charge density of overlapping atoms calculated
 number of electron      44.0000000 magnetization       2.0000000
 keeping initial charge density in first step


--------------------------------------------------------------------------------------------------------


 Maximum index for augmentation-charges         1073 (set IRDMAX)


--------------------------------------------------------------------------------------------------------


 First call to EWALD:  gamma=   0.536
 Maximum number of real-space cells 3x 3x 3
 Maximum number of reciprocal cells 4x 4x 4

    FEWALD:  cpu time    0.0012: real time    0.0012


--------------------------------------- Iteration      1(   1)  ---------------------------------------


    POTLOK:  cpu time    0.0196: real time    0.0204
    SETDIJ:  cpu time    0.0058: real time    0.0058
atom =   1  type =  1  l = 2
 
 onsite density matrix
 
spin component  1
 
  0.8210  0.0000  0.0000  0.0000  0.0000
  0.0000  0.8210  0.0000  0.0000  0.0000
  0.0000  0.0000  0.8210  0.0000  0.0000
  0.0000  0.0000  0.0000  0.8210  0.0000
  0.0000  0.0000  0.0000  0.0000  0.8210
 
spin component  2
 
  0.8210  0.0000  0.0000  0.0000  0.0000
  0.0000  0.8210  0.0000  0.0000  0.0000
  0.0000  0.0000  0.8210  0.0000  0.0000
  0.0000  0.0000  0.0000  0.8210  0.0000
  0.0000  0.0000  0.0000  0.0000  0.8210
 
 occupancies and eigenvectors
 
  o =  0.8210  v =  1.0000  0.0000  0.0000  0.0000  0.0000  0.0000  0.0000  0.0000  0.0000  0.0000      0.0000  0.0000  0.0000  0.0000  0.0000  0.0000  0.0000  0.0000  0.0000  0.0000
  o =  0.8210  v =  0.0000  1.0000  0.0000  0.0000  0.0000  0.0000  0.0000  0.0000  0.0000  0.0000      0.0000  0.0000  0.0000  0.0000  0.0000  0.0000  0.0000  0.0000  0.0000  0.0000
  o =  0.8210  v =  0.0000  0.0000  1.0000  0.0000  0.0000  0.0000  0.0000  0.0000  0.0000  0.0000      0.0000  0.0000  0.0000  0.0000  0.0000  0.0000  0.0000  0.0000  0.0000  0.0000
  o =  0.8210  v =  0.0000  0.0000  0.0000  1.0000  0.0000  0.0000  0.0000  0.0000  0.0000  0.0000      0.0000  0.0000  0.0000  0.0000  0.0000  0.0000  0.0000  0.0000  0.0000  0.0000
  o =  0.8210  v =  0.0000  0.0000  0.0000  0.0000  1.0000  0.0000  0.0000  0.0000  0.0000  0.0000      0.0000  0.0000  0.0000  0.0000  0.0000  0.0000  0.0000  0.0000  0.0000  0.0000
  o =  0.8210  v =  0.0000  0.0000  0.0000  0.0000  0.0000  1.0000  0.0000  0.0000  0.0000  0.0000      0.0000  0.0000  0.0000  0.0000  0.0000  0.0000  0.0000  0.0000  0.0000  0.0000
  o =  0.8210  v =  0.0000  0.0000  0.0000  0.0000  0.0000  0.0000  1.0000  0.0000  0.0000  0.0000      0.0000  0.0000  0.0000  0.0000  0.0000  0.0000  0.0000  0.0000  0.0000  0.0000
  o =  0.8210  v =  0.0000  0.0000  0.0000  0.0000  0.0000  0.0000  0.0000  1.0000  0.0000  0.0000      0.0000  0.0000  0.0000  0.0000  0.0000  0.0000  0.0000  0.0000  0.0000  0.0000
  o =  0.8210  v =  0.0000  0.0000  0.0000  0.0000  0.0000  0.0000  0.0000  0.0000  1.0000  0.0000      0.0000  0.0000  0.0000  0.0000  0.0000  0.0000  0.0000  0.0000  0.0000  0.0000
  o =  0.8210  v =  0.0000  0.0000  0.0000  0.0000  0.0000  0.0000  0.0000  0.0000  0.0000  1.0000      0.0000  0.0000  0.0000  0.0000  0.0000  0.0000  0.0000  0.0000  0.0000  0.0000
atom =   2  type =  1  l = 2
 
 onsite density matrix
 
spin component  1
 
  0.8210  0.0000  0.0000  0.0000  0.0000
  0.0000  0.8210  0.0000  0.0000  0.0000
  0.0000  0.0000  0.8210  0.0000  0.0000
  0.0000  0.0000  0.0000  0.8210  0.0000
  0.0000  0.0000  0.0000  0.0000  0.8210
 
spin component  2
 
  0.8210  0.0000  0.0000  0.0000  0.0000
  0.0000  0.8210  0.0000  0.0000  0.0000
  0.0000  0.0000  0.8210  0.0000  0.0000
  0.0000  0.0000  0.0000  0.8210  0.0000
  0.0000  0.0000  0.0000  0.0000  0.8210
 
 occupancies and eigenvectors
 
  o =  0.8210  v =  1.0000  0.0000  0.0000  0.0000  0.0000  0.0000  0.0000  0.0000  0.0000  0.0000      0.0000  0.0000  0.0000  0.0000  0.0000  0.0000  0.0000  0.0000  0.0000  0.0000
  o =  0.8210  v =  0.0000  1.0000  0.0000  0.0000  0.0000  0.0000  0.0000  0.0000  0.0000  0.0000      0.0000  0.0000  0.0000  0.0000  0.0000  0.0000  0.0000  0.0000  0.0000  0.0000
  o =  0.8210  v =  0.0000  0.0000  1.0000  0.0000  0.0000  0.0000  0.0000  0.0000  0.0000  0.0000      0.0000  0.0000  0.0000  0.0000  0.0000  0.0000  0.0000  0.0000  0.0000  0.0000
  o =  0.8210  v =  0.0000  0.0000  0.0000  1.0000  0.0000  0.0000  0.0000  0.0000  0.0000  0.0000      0.0000  0.0000  0.0000  0.0000  0.0000  0.0000  0.0000  0.0000  0.0000  0.0000
  o =  0.8210  v =  0.0000  0.0000  0.0000  0.0000  1.0000  0.0000  0.0000  0.0000  0.0000  0.0000      0.0000  0.0000  0.0000  0.0000  0.0000  0.0000  0.0000  0.0000  0.0000  0.0000
  o =  0.8210  v =  0.0000  0.0000  0.0000  0.0000  0.0000  1.0000  0.0000  0.0000  0.0000  0.0000      0.0000  0.0000  0.0000  0.0000  0.0000  0.0000  0.0000  0.0000  0.0000  0.0000
  o =  0.8210  v =  0.0000  0.0000  0.0000  0.0000  0.0000  0.0000  1.0000  0.0000  0.0000  0.0000      0.0000  0.0000  0.0000  0.0000  0.0000  0.0000  0.0000  0.0000  0.0000  0.0000
  o =  0.8210  v =  0.0000  0.0000  0.0000  0.0000  0.0000  0.0000  0.0000  1.0000  0.0000  0.0000      0.0000  0.0000  0.0000  0.0000  0.0000  0.0000  0.0000  0.0000  0.0000  0.0000
  o =  0.8210  v =  0.0000  0.0000  0.0000  0.0000  0.0000  0.0000  0.0000  0.0000  1.0000  0.0000      0.0000  0.0000  0.0000  0.0000  0.0000  0.0000  0.0000  0.0000  0.0000  0.0000
  o =  0.8210  v =  0.0000  0.0000  0.0000  0.0000  0.0000  0.0000  0.0000  0.0000  0.0000  1.0000      0.0000  0.0000  0.0000  0.0000  0.0000  0.0000  0.0000  0.0000  0.0000  0.0000
     EDDAV:  cpu time    0.1771: real time    0.1773
 BZINTS: Fermi energy: 18.119387; 44.000000 electrons
         Band energy:-228.600904;  BLOECHL correction: -0.351303
       DOS:  cpu time    0.0023: real time    0.0022
    --------------------------------------------
      LOOP:  cpu time    0.2047: real time    0.2058

 eigenvalue-minimisations  :  1056
 total energy-change (2. order) : 0.3574161E+03  (-0.2904891E+04)
 number of electron      44.0000000 magnetization       2.0000000
 augmentation part       44.0000000 magnetization       2.0000000

 Free energy of the ion-electron system (eV)
  ---------------------------------------------------
  alpha Z        PSCENC =       311.81991378
  Ewald energy   TEWEN  =     -5345.56183988
  -Hartree energ DENC   =     -2231.97249407
  -exchange      EXHF   =         0.00000000
  -V(xc)+E(xc)   XCENC  =       234.12963983
  PAW double counting   =      6520.30456426    -6769.44334889
  entropy T*S    EENTRO =         0.00000000
  eigenvalues    EBANDS =      -228.60090406
  atomic energy  EATOM  =      7866.74061565
  Solvation  Ediel_sol  =         0.00000000
  ---------------------------------------------------
  free energy    TOTEN  =       357.41614662 eV

  energy without entropy =      357.41614662  energy(sigma->0) =      357.41614662


--------------------------------------------------------------------------------------------------------




--------------------------------------- Iteration      1(   2)  ---------------------------------------


     EDDAV:  cpu time    0.1801: real time    0.1806
 BZINTS: Fermi energy:  7.691972; 44.000000 electrons
         Band energy:-591.703368;  BLOECHL correction: -0.173558
       DOS:  cpu time    0.0020: real time    0.0020
    --------------------------------------------
      LOOP:  cpu time    0.1821: real time    0.1826

 eigenvalue-minimisations  :  1136
 total energy-change (2. order) :-0.3631025E+03  (-0.3548204E+03)
 number of electron      44.0000000 magnetization       2.0000000
 augmentation part       44.0000000 magnetization       2.0000000

 Free energy of the ion-electron system (eV)
  ---------------------------------------------------
  alpha Z        PSCENC =       311.81991378
  Ewald energy   TEWEN  =     -5345.56183988
  -Hartree energ DENC   =     -2231.97249407
  -exchange      EXHF   =         0.00000000
  -V(xc)+E(xc)   XCENC  =       234.12963983
  PAW double counting   =      6520.30456426    -6769.44334889
  entropy T*S    EENTRO =         0.00000000
  eigenvalues    EBANDS =      -591.70336771
  atomic energy  EATOM  =      7866.74061565
  Solvation  Ediel_sol  =         0.00000000
  ---------------------------------------------------
  free energy    TOTEN  =        -5.68631703 eV

  energy without entropy =       -5.68631703  energy(sigma->0) =       -5.68631703


--------------------------------------------------------------------------------------------------------




--------------------------------------- Iteration      1(   3)  ---------------------------------------


     EDDAV:  cpu time    0.1987: real time    0.1989
 BZINTS: Fermi energy:  7.401443; 44.000000 electrons
         Band energy:-602.240820;  BLOECHL correction: -0.106599
       DOS:  cpu time    0.0019: real time    0.0018
    --------------------------------------------
      LOOP:  cpu time    0.2006: real time    0.2008

 eigenvalue-minimisations  :  1232
 total energy-change (2. order) :-0.1053745E+02  (-0.1055278E+02)
 number of electron      44.0000000 magnetization       2.0000000
 augmentation part       44.0000000 magnetization       2.0000000

 Free energy of the ion-electron system (eV)
  ---------------------------------------------------
  alpha Z        PSCENC =       311.81991378
  Ewald energy   TEWEN  =     -5345.56183988
  -Hartree energ DENC   =     -2231.97249407
  -exchange      EXHF   =         0.00000000
  -V(xc)+E(xc)   XCENC  =       234.12963983
  PAW double counting   =      6520.30456426    -6769.44334889
  entropy T*S    EENTRO =         0.00000000
  eigenvalues    EBANDS =      -602.24081989
  atomic energy  EATOM  =      7866.74061565
  Solvation  Ediel_sol  =         0.00000000
  ---------------------------------------------------
  free energy    TOTEN  =       -16.22376921 eV

  energy without entropy =      -16.22376921  energy(sigma->0) =      -16.22376921


--------------------------------------------------------------------------------------------------------




--------------------------------------- Iteration      1(   4)  ---------------------------------------


     EDDAV:  cpu time    0.1965: real time    0.1967
 BZINTS: Fermi energy:  7.400384; 44.000000 electrons
         Band energy:-602.324890;  BLOECHL correction: -0.106406
       DOS:  cpu time    0.0018: real time    0.0018
    --------------------------------------------
      LOOP:  cpu time    0.1983: real time    0.1984

 eigenvalue-minimisations  :  1232
 total energy-change (2. order) :-0.8407004E-01  (-0.8417861E-01)
 number of electron      44.0000000 magnetization       2.0000000
 augmentation part       44.0000000 magnetization       2.0000000

 Free energy of the ion-electron system (eV)
  ---------------------------------------------------
  alpha Z        PSCENC =       311.81991378
  Ewald energy   TEWEN  =     -5345.56183988
  -Hartree energ DENC   =     -2231.97249407
  -exchange      EXHF   =         0.00000000
  -V(xc)+E(xc)   XCENC  =       234.12963983
  PAW double counting   =      6520.30456426    -6769.44334889
  entropy T*S    EENTRO =         0.00000000
  eigenvalues    EBANDS =      -602.32488993
  atomic energy  EATOM  =      7866.74061565
  Solvation  Ediel_sol  =         0.00000000
  ---------------------------------------------------
  free energy    TOTEN  =       -16.30783925 eV

  energy without entropy =      -16.30783925  energy(sigma->0) =      -16.30783925


--------------------------------------------------------------------------------------------------------




--------------------------------------- Iteration      1(   5)  ---------------------------------------


     EDDAV:  cpu time    0.1936: real time    0.1938
 BZINTS: Fermi energy:  7.400384; 44.000000 electrons
         Band energy:-602.326275;  BLOECHL correction: -0.106406
       DOS:  cpu time    0.0019: real time    0.0019
    CHARGE:  cpu time    0.0130: real time    0.0130
    MIXING:  cpu time    0.0005: real time    0.0005
    --------------------------------------------
      LOOP:  cpu time    0.2090: real time    0.2092

 eigenvalue-minimisations  :  1216
 total energy-change (2. order) :-0.1384955E-02  (-0.1384867E-02)
 number of electron      44.0000076 magnetization       0.5019213
 augmentation part       19.9567222 magnetization       0.4338934

 Broyden mixing:
  rms(total) = 0.19237E+01    rms(broyden)= 0.19173E+01
  rms(prec ) = 0.28528E+01
  weight for this iteration     100.00

 Free energy of the ion-electron system (eV)
  ---------------------------------------------------
  alpha Z        PSCENC =       311.81991378
  Ewald energy   TEWEN  =     -5345.56183988
  -Hartree energ DENC   =     -2231.97249407
  -exchange      EXHF   =         0.00000000
  -V(xc)+E(xc)   XCENC  =       234.12963983
  PAW double counting   =      6520.30456426    -6769.44334889
  entropy T*S    EENTRO =         0.00000000
  eigenvalues    EBANDS =      -602.32627488
  atomic energy  EATOM  =      7866.74061565
  Solvation  Ediel_sol  =         0.00000000
  ---------------------------------------------------
  free energy    TOTEN  =       -16.30922420 eV

  energy without entropy =      -16.30922420  energy(sigma->0) =      -16.30922420


--------------------------------------------------------------------------------------------------------




--------------------------------------- Iteration      1(   6)  ---------------------------------------


    POTLOK:  cpu time    0.0157: real time    0.0159
    SETDIJ:  cpu time    0.0059: real time    0.0059
atom =   1  type =  1  l = 2
 
 onsite density matrix
 
spin component  1
 
  0.8401 -0.0011  0.0016 -0.0011 -0.0001
 -0.0011  0.8401 -0.0009 -0.0011  0.0015
  0.0016 -0.0009  0.7706 -0.0007 -0.0008
 -0.0011 -0.0011 -0.0007  0.8401 -0.0014
 -0.0001  0.0015 -0.0008 -0.0014  0.7718
 
spin component  2
 
  0.8419  0.0011  0.0006  0.0011  0.0001
  0.0011  0.8419 -0.0002  0.0011  0.0005
  0.0006 -0.0002  0.7761 -0.0003  0.0004
  0.0011  0.0011 -0.0003  0.8419 -0.0005
  0.0001  0.0005  0.0004 -0.0005  0.7758
 
 occupancies and eigenvectors
 
  o =  0.7702  v =  0.0198 -0.0018 -0.8974 -0.0180 -0.4405  0.0000  0.0000  0.0000  0.0000  0.0000      0.0000  0.0000  0.0000  0.0000  0.0000  0.0000  0.0000  0.0000  0.0000  0.0000
  o =  0.7721  v = -0.0115  0.0253  0.4404 -0.0138 -0.8973  0.0000  0.0000  0.0000  0.0000  0.0000      0.0000  0.0000  0.0000  0.0000  0.0000  0.0000  0.0000  0.0000  0.0000  0.0000
  o =  0.7755  v =  0.0000  0.0000  0.0000  0.0000  0.0000  0.0044 -0.0079 -0.5812  0.0035  0.8137      0.0000  0.0000  0.0000  0.0000  0.0000  0.0000  0.0000  0.0000  0.0000  0.0000
  o =  0.7764  v =  0.0000  0.0000  0.0000  0.0000  0.0000 -0.0076 -0.0012  0.8137  0.0088  0.5812      0.0000  0.0000  0.0000  0.0000  0.0000  0.0000  0.0000  0.0000  0.0000  0.0000
  o =  0.8379  v =  0.5773  0.5773 -0.0000  0.5774  0.0000  0.0000  0.0000  0.0000  0.0000  0.0000      0.0000  0.0000  0.0000  0.0000  0.0000  0.0000  0.0000  0.0000  0.0000  0.0000
  o =  0.8408  v =  0.0000  0.0000  0.0000  0.0000  0.0000  0.6386 -0.7599  0.0077  0.1214 -0.0058      0.0000  0.0000  0.0000  0.0000  0.0000  0.0000  0.0000  0.0000  0.0000  0.0000
  o =  0.8408  v =  0.0000  0.0000  0.0000  0.0000  0.0000  0.5089  0.2986  0.0074 -0.8073  0.0090      0.0000  0.0000  0.0000  0.0000  0.0000  0.0000  0.0000  0.0000  0.0000  0.0000
  o =  0.8412  v =  0.6465  0.1084  0.0210 -0.7547  0.0167  0.0000  0.0000  0.0000  0.0000  0.0000      0.0000  0.0000  0.0000  0.0000  0.0000  0.0000  0.0000  0.0000  0.0000  0.0000
  o =  0.8413  v =  0.4982 -0.8089  0.0186  0.3106 -0.0248  0.0000  0.0000  0.0000  0.0000  0.0000      0.0000  0.0000  0.0000  0.0000  0.0000  0.0000  0.0000  0.0000  0.0000  0.0000
  o =  0.8440  v =  0.0000  0.0000  0.0000  0.0000  0.0000  0.5773  0.5774 -0.0000  0.5774 -0.0000      0.0000  0.0000  0.0000  0.0000  0.0000  0.0000  0.0000  0.0000  0.0000  0.0000
atom =   2  type =  1  l = 2
 
 onsite density matrix
 
spin component  1
 
  0.8401 -0.0011  0.0016 -0.0011 -0.0001
 -0.0011  0.8401 -0.0009 -0.0011  0.0015
  0.0016 -0.0009  0.7706 -0.0007 -0.0008
 -0.0011 -0.0011 -0.0007  0.8401 -0.0014
 -0.0001  0.0015 -0.0008 -0.0014  0.7718
 
spin component  2
 
  0.8419  0.0011  0.0006  0.0011  0.0001
  0.0011  0.8419 -0.0002  0.0011  0.0005
  0.0006 -0.0002  0.7761 -0.0003  0.0004
  0.0011  0.0011 -0.0003  0.8419 -0.0005
  0.0001  0.0005  0.0004 -0.0005  0.7758
 
 occupancies and eigenvectors
 
  o =  0.7702  v =  0.0198 -0.0018 -0.8970 -0.0180 -0.4413  0.0000  0.0000  0.0000  0.0000  0.0000      0.0000  0.0000  0.0000  0.0000  0.0000  0.0000  0.0000  0.0000  0.0000  0.0000
  o =  0.7721  v = -0.0115  0.0253  0.4412 -0.0138 -0.8969  0.0000  0.0000  0.0000  0.0000  0.0000      0.0000  0.0000  0.0000  0.0000  0.0000  0.0000  0.0000  0.0000  0.0000  0.0000
  o =  0.7755  v =  0.0000  0.0000  0.0000  0.0000  0.0000  0.0044 -0.0079 -0.5830  0.0035  0.8124      0.0000  0.0000  0.0000  0.0000  0.0000  0.0000  0.0000  0.0000  0.0000  0.0000
  o =  0.7764  v =  0.0000  0.0000  0.0000  0.0000  0.0000 -0.0076 -0.0012  0.8124  0.0088  0.5830      0.0000  0.0000  0.0000  0.0000  0.0000  0.0000  0.0000  0.0000  0.0000  0.0000
  o =  0.8379  v =  0.5774  0.5772  0.0000  0.5774 -0.0000  0.0000  0.0000  0.0000  0.0000  0.0000      0.0000  0.0000  0.0000  0.0000  0.0000  0.0000  0.0000  0.0000  0.0000  0.0000
  o =  0.8408  v =  0.0000  0.0000  0.0000  0.0000  0.0000  0.6466 -0.7551  0.0078  0.1081 -0.0057      0.0000  0.0000  0.0000  0.0000  0.0000  0.0000  0.0000  0.0000  0.0000  0.0000
  o =  0.8408  v =  0.0000  0.0000  0.0000  0.0000  0.0000  0.4983  0.3109  0.0073 -0.8093  0.0091      0.0000  0.0000  0.0000  0.0000  0.0000  0.0000  0.0000  0.0000  0.0000  0.0000
  o =  0.8412  v =  0.6467  0.1079  0.0210 -0.7546  0.0167  0.0000  0.0000  0.0000  0.0000  0.0000      0.0000  0.0000  0.0000  0.0000  0.0000  0.0000  0.0000  0.0000  0.0000  0.0000
  o =  0.8413  v =  0.4978 -0.8090  0.0186  0.3109 -0.0248  0.0000  0.0000  0.0000  0.0000  0.0000      0.0000  0.0000  0.0000  0.0000  0.0000  0.0000  0.0000  0.0000  0.0000  0.0000
  o =  0.8440  v =  0.0000  0.0000  0.0000  0.0000  0.0000  0.5775  0.5772 -0.0000  0.5774  0.0000      0.0000  0.0000  0.0000  0.0000  0.0000  0.0000  0.0000  0.0000  0.0000  0.0000
     EDDAV:  cpu time    0.2199: real time    0.2199
 BZINTS: Fermi energy:  6.462190; 44.000000 electrons
         Band energy:-632.346564;  BLOECHL correction: -0.012857
       DOS:  cpu time    0.0016: real time    0.0016
    CHARGE:  cpu time    0.0126: real time    0.0126
    MIXING:  cpu time    0.0005: real time    0.0005
    --------------------------------------------
      LOOP:  cpu time    0.2562: real time    0.2564

 eigenvalue-minimisations  :  1408
 total energy-change (2. order) : 0.1302881E+01  (-0.5110352E+00)
 number of electron      44.0000074 magnetization       0.0751904
 augmentation part       20.4868331 magnetization       0.0728324

 Broyden mixing:
  rms(total) = 0.12074E+01    rms(broyden)= 0.12073E+01
  rms(prec ) = 0.12779E+01
  weight for this iteration     100.00

 eigenvalues of (default mixing * dielectric matrix)
  average eigenvalue GAMMA=   1.1795
  1.1795

 Free energy of the ion-electron system (eV)
  ---------------------------------------------------
  alpha Z        PSCENC =       311.81991378
  Ewald energy   TEWEN  =     -5345.56183988
  -Hartree energ DENC   =     -2203.11417193
  -exchange      EXHF   =         0.00000000
  -V(xc)+E(xc)   XCENC  =       233.32879467
  PAW double counting   =      6560.81462947    -6806.68772055
  entropy T*S    EENTRO =         0.00000000
  eigenvalues    EBANDS =      -632.34656406
  atomic energy  EATOM  =      7866.74061565
  Solvation  Ediel_sol  =         0.00000000
  ---------------------------------------------------
  free energy    TOTEN  =       -15.00634286 eV

  energy without entropy =      -15.00634286  energy(sigma->0) =      -15.00634286


--------------------------------------------------------------------------------------------------------




--------------------------------------- Iteration      1(   7)  ---------------------------------------


    POTLOK:  cpu time    0.0157: real time    0.0158
    SETDIJ:  cpu time    0.0058: real time    0.0058
atom =   1  type =  1  l = 2
 
 onsite density matrix
 
spin component  1
 
  0.8597 -0.0004  0.0017 -0.0003 -0.0001
 -0.0004  0.8598 -0.0009 -0.0004  0.0016
  0.0017 -0.0009  0.7416 -0.0007 -0.0002
 -0.0003 -0.0004 -0.0007  0.8597 -0.0014
 -0.0001  0.0016 -0.0002 -0.0014  0.7420
 
spin component  2
 
  0.8604  0.0003  0.0008  0.0002  0.0001
  0.0003  0.8604 -0.0003  0.0002  0.0006
  0.0008 -0.0003  0.7534 -0.0004  0.0001
  0.0002  0.0002 -0.0004  0.8604 -0.0007
  0.0001  0.0006  0.0001 -0.0007  0.7534
 
 occupancies and eigenvectors
 
  o =  0.7414  v =  0.0127 -0.0025 -0.9317 -0.0103 -0.3628  0.0000  0.0000  0.0000  0.0000  0.0000      0.0000  0.0000  0.0000  0.0000  0.0000  0.0000  0.0000  0.0000  0.0000  0.0000
  o =  0.7421  v = -0.0058  0.0151  0.3628 -0.0091 -0.9317  0.0000  0.0000  0.0000  0.0000  0.0000      0.0000  0.0000  0.0000  0.0000  0.0000  0.0000  0.0000  0.0000  0.0000  0.0000
  o =  0.7533  v =  0.0000  0.0000  0.0000  0.0000  0.0000  0.0057 -0.0061 -0.8099  0.0006  0.5865      0.0000  0.0000  0.0000  0.0000  0.0000  0.0000  0.0000  0.0000  0.0000  0.0000
  o =  0.7535  v =  0.0000  0.0000  0.0000  0.0000  0.0000 -0.0048 -0.0031  0.5865  0.0079  0.8099      0.0000  0.0000  0.0000  0.0000  0.0000  0.0000  0.0000  0.0000  0.0000  0.0000
  o =  0.8590  v = -0.5751 -0.5889  0.0001 -0.5679 -0.0004  0.0000  0.0000  0.0000  0.0000  0.0000      0.0000  0.0000  0.0000  0.0000  0.0000  0.0000  0.0000  0.0000  0.0000  0.0000
  o =  0.8601  v = -0.6315 -0.1216 -0.0127  0.7656 -0.0105  0.0000  0.0000  0.0000  0.0000  0.0000      0.0000  0.0000  0.0000  0.0000  0.0000  0.0000  0.0000  0.0000  0.0000  0.0000
  o =  0.8601  v =  0.0000  0.0000  0.0000  0.0000  0.0000  0.4126 -0.8101  0.0038  0.4165 -0.0075      0.0000  0.0000  0.0000  0.0000  0.0000  0.0000  0.0000  0.0000  0.0000  0.0000
  o =  0.8602  v =  0.5199 -0.7988  0.0116  0.3020 -0.0146  0.0000  0.0000  0.0000  0.0000  0.0000      0.0000  0.0000  0.0000  0.0000  0.0000  0.0000  0.0000  0.0000  0.0000  0.0000
  o =  0.8602  v =  0.0000  0.0000  0.0000  0.0000  0.0000 -0.7052  0.0053 -0.0082  0.7089 -0.0051      0.0000  0.0000  0.0000  0.0000  0.0000  0.0000  0.0000  0.0000  0.0000  0.0000
  o =  0.8609  v =  0.0000  0.0000  0.0000  0.0000  0.0000  0.5765  0.5863  0.0001  0.5691  0.0000      0.0000  0.0000  0.0000  0.0000  0.0000  0.0000  0.0000  0.0000  0.0000  0.0000
atom =   2  type =  1  l = 2
 
 onsite density matrix
 
spin component  1
 
  0.8597 -0.0004  0.0017 -0.0003 -0.0001
 -0.0004  0.8598 -0.0009 -0.0004  0.0016
  0.0017 -0.0009  0.7416 -0.0007 -0.0002
 -0.0003 -0.0004 -0.0007  0.8597 -0.0014
 -0.0001  0.0016 -0.0002 -0.0014  0.7420
 
spin component  2
 
  0.8604  0.0002  0.0008  0.0002  0.0001
  0.0002  0.8604 -0.0003  0.0002  0.0006
  0.0008 -0.0003  0.7534 -0.0004  0.0001
  0.0002  0.0002 -0.0004  0.8604 -0.0007
  0.0001  0.0006  0.0001 -0.0007  0.7535
 
 occupancies and eigenvectors
 
  o =  0.7414  v =  0.0126 -0.0021 -0.9236 -0.0105 -0.3829  0.0000  0.0000  0.0000  0.0000  0.0000      0.0000  0.0000  0.0000  0.0000  0.0000  0.0000  0.0000  0.0000  0.0000  0.0000
  o =  0.7421  v = -0.0061  0.0152  0.3829 -0.0089 -0.9236  0.0000  0.0000  0.0000  0.0000  0.0000      0.0000  0.0000  0.0000  0.0000  0.0000  0.0000  0.0000  0.0000  0.0000  0.0000
  o =  0.7533  v =  0.0000  0.0000  0.0000  0.0000  0.0000  0.0058 -0.0060 -0.8207  0.0004  0.5713      0.0000  0.0000  0.0000  0.0000  0.0000  0.0000  0.0000  0.0000  0.0000  0.0000
  o =  0.7536  v =  0.0000  0.0000  0.0000  0.0000  0.0000 -0.0047 -0.0032  0.5713  0.0079  0.8207      0.0000  0.0000  0.0000  0.0000  0.0000  0.0000  0.0000  0.0000  0.0000  0.0000
  o =  0.8590  v = -0.5737 -0.5897  0.0001 -0.5684 -0.0004  0.0000  0.0000  0.0000  0.0000  0.0000      0.0000  0.0000  0.0000  0.0000  0.0000  0.0000  0.0000  0.0000  0.0000  0.0000
  o =  0.8601  v = -0.6336 -0.1201 -0.0127  0.7641 -0.0104  0.0000  0.0000  0.0000  0.0000  0.0000      0.0000  0.0000  0.0000  0.0000  0.0000  0.0000  0.0000  0.0000  0.0000  0.0000
  o =  0.8601  v =  0.0000  0.0000  0.0000  0.0000  0.0000  0.4104 -0.8089  0.0038  0.4209 -0.0075      0.0000  0.0000  0.0000  0.0000  0.0000  0.0000  0.0000  0.0000  0.0000  0.0000
  o =  0.8602  v =  0.5189 -0.7985  0.0115  0.3046 -0.0147  0.0000  0.0000  0.0000  0.0000  0.0000      0.0000  0.0000  0.0000  0.0000  0.0000  0.0000  0.0000  0.0000  0.0000  0.0000
  o =  0.8602  v =  0.0000  0.0000  0.0000  0.0000  0.0000 -0.7072  0.0091 -0.0082  0.7069 -0.0051      0.0000  0.0000  0.0000  0.0000  0.0000  0.0000  0.0000  0.0000  0.0000  0.0000
  o =  0.8609  v =  0.0000  0.0000  0.0000  0.0000  0.0000  0.5757  0.5878  0.0000  0.5684  0.0001      0.0000  0.0000  0.0000  0.0000  0.0000  0.0000  0.0000  0.0000  0.0000  0.0000
     EDDAV:  cpu time    0.1602: real time    0.1602
 BZINTS: Fermi energy:  6.644713; 44.000000 electrons
         Band energy:-625.932857;  BLOECHL correction:  0.000000
       DOS:  cpu time    0.0006: real time    0.0006
    CHARGE:  cpu time    0.0126: real time    0.0126
    MIXING:  cpu time    0.0005: real time    0.0005
    --------------------------------------------
      LOOP:  cpu time    0.1953: real time    0.1954

 eigenvalue-minimisations  :  1024
 total energy-change (2. order) :-0.2094093E+00  (-0.5422709E-01)
 number of electron      44.0000074 magnetization      -0.1350738
 augmentation part       20.4065635 magnetization      -0.1375471

 Broyden mixing:
  rms(total) = 0.91761E+00    rms(broyden)= 0.91759E+00
  rms(prec ) = 0.95779E+00
  weight for this iteration     100.00

 eigenvalues of (default mixing * dielectric matrix)
  average eigenvalue GAMMA=   1.8241
  1.0762  2.5719

 Free energy of the ion-electron system (eV)
  ---------------------------------------------------
  alpha Z        PSCENC =       311.81991378
  Ewald energy   TEWEN  =     -5345.56183988
  -Hartree energ DENC   =     -2208.40287494
  -exchange      EXHF   =         0.00000000
  -V(xc)+E(xc)   XCENC  =       233.63222331
  PAW double counting   =      6671.57905094    -6919.08998414
  entropy T*S    EENTRO =         0.00000000
  eigenvalues    EBANDS =      -625.93285691
  atomic energy  EATOM  =      7866.74061565
  Solvation  Ediel_sol  =         0.00000000
  ---------------------------------------------------
  free energy    TOTEN  =       -15.21575220 eV

  energy without entropy =      -15.21575220  energy(sigma->0) =      -15.21575220


--------------------------------------------------------------------------------------------------------




--------------------------------------- Iteration      1(   8)  ---------------------------------------


    POTLOK:  cpu time    0.0163: real time    0.0164
    SETDIJ:  cpu time    0.0058: real time    0.0058
atom =   1  type =  1  l = 2
 
 onsite density matrix
 
spin component  1
 
  0.9039  0.0002  0.0013  0.0001 -0.0001
  0.0002  0.9038 -0.0007  0.0002  0.0012
  0.0013 -0.0007  0.6873 -0.0006  0.0003
  0.0001  0.0002 -0.0006  0.9039 -0.0012
 -0.0001  0.0012  0.0003 -0.0012  0.6876
 
spin component  2
 
  0.9021 -0.0005  0.0012 -0.0004  0.0001
 -0.0005  0.9021 -0.0005 -0.0005  0.0010
  0.0012 -0.0005  0.6931 -0.0006 -0.0003
 -0.0004 -0.0005 -0.0006  0.9020 -0.0010
  0.0001  0.0010 -0.0003 -0.0010  0.6930
 
 occupancies and eigenvectors
 
  o =  0.6871  v =  0.0054 -0.0060 -0.8435  0.0006  0.5371  0.0000  0.0000  0.0000  0.0000  0.0000      0.0000  0.0000  0.0000  0.0000  0.0000  0.0000  0.0000  0.0000  0.0000  0.0000
  o =  0.6877  v = -0.0030 -0.0030  0.5371  0.0061  0.8435  0.0000  0.0000  0.0000  0.0000  0.0000      0.0000  0.0000  0.0000  0.0000  0.0000  0.0000  0.0000  0.0000  0.0000  0.0000
  o =  0.6927  v =  0.0000  0.0000  0.0000  0.0000  0.0000  0.0041  0.0017 -0.6874 -0.0057 -0.7263      0.0000  0.0000  0.0000  0.0000  0.0000  0.0000  0.0000  0.0000  0.0000  0.0000
  o =  0.6934  v =  0.0000  0.0000  0.0000  0.0000  0.0000 -0.0039  0.0051  0.7263 -0.0012 -0.6874      0.0000  0.0000  0.0000  0.0000  0.0000  0.0000  0.0000  0.0000  0.0000  0.0000
  o =  0.9012  v =  0.0000  0.0000  0.0000  0.0000  0.0000 -0.5801 -0.5730 -0.0001 -0.5790  0.0000      0.0000  0.0000  0.0000  0.0000  0.0000  0.0000  0.0000  0.0000  0.0000  0.0000
  o =  0.9025  v =  0.0000  0.0000  0.0000  0.0000  0.0000 -0.6674 -0.0731 -0.0059  0.7410 -0.0042      0.0000  0.0000  0.0000  0.0000  0.0000  0.0000  0.0000  0.0000  0.0000  0.0000
  o =  0.9026  v =  0.0000  0.0000  0.0000  0.0000  0.0000  0.4669 -0.8163  0.0037  0.3400 -0.0054      0.0000  0.0000  0.0000  0.0000  0.0000  0.0000  0.0000  0.0000  0.0000  0.0000
  o =  0.9037  v =  0.4126 -0.8278  0.0043  0.3801 -0.0069  0.0000  0.0000  0.0000  0.0000  0.0000      0.0000  0.0000  0.0000  0.0000  0.0000  0.0000  0.0000  0.0000  0.0000  0.0000
  o =  0.9038  v = -0.7010 -0.0221 -0.0062  0.7128 -0.0037  0.0000  0.0000  0.0000  0.0000  0.0000      0.0000  0.0000  0.0000  0.0000  0.0000  0.0000  0.0000  0.0000  0.0000  0.0000
  o =  0.9042  v =  0.5817  0.5605  0.0000  0.5894 -0.0002  0.0000  0.0000  0.0000  0.0000  0.0000      0.0000  0.0000  0.0000  0.0000  0.0000  0.0000  0.0000  0.0000  0.0000  0.0000
atom =   2  type =  1  l = 2
 
 onsite density matrix
 
spin component  1
 
  0.9039  0.0002  0.0013  0.0001 -0.0001
  0.0002  0.9038 -0.0007  0.0002  0.0012
  0.0013 -0.0007  0.6847 -0.0006 -0.0001
  0.0001  0.0002 -0.0006  0.9039 -0.0012
 -0.0001  0.0012 -0.0001 -0.0012  0.6844
 
spin component  2
 
  0.9020 -0.0005  0.0012 -0.0004  0.0001
 -0.0005  0.9021 -0.0005 -0.0005  0.0010
  0.0012 -0.0005  0.6910 -0.0006  0.0001
 -0.0004 -0.0005 -0.0006  0.9020 -0.0010
  0.0001  0.0010  0.0001 -0.0010  0.6915
 
 occupancies and eigenvectors
 
  o =  0.6843  v = -0.0012 -0.0046  0.2537  0.0058  0.9672  0.0000  0.0000  0.0000  0.0000  0.0000      0.0000  0.0000  0.0000  0.0000  0.0000  0.0000  0.0000  0.0000  0.0000  0.0000
  o =  0.6847  v =  0.0059 -0.0046 -0.9672 -0.0012  0.2537  0.0000  0.0000  0.0000  0.0000  0.0000      0.0000  0.0000  0.0000  0.0000  0.0000  0.0000  0.0000  0.0000  0.0000  0.0000
  o =  0.6909  v =  0.0000  0.0000  0.0000  0.0000  0.0000  0.0054 -0.0030 -0.9916 -0.0023  0.1294      0.0000  0.0000  0.0000  0.0000  0.0000  0.0000  0.0000  0.0000  0.0000  0.0000
  o =  0.6915  v =  0.0000  0.0000  0.0000  0.0000  0.0000 -0.0010 -0.0042  0.1294  0.0052  0.9916      0.0000  0.0000  0.0000  0.0000  0.0000  0.0000  0.0000  0.0000  0.0000  0.0000
  o =  0.9011  v =  0.0000  0.0000  0.0000  0.0000  0.0000 -0.5824 -0.5756 -0.0000 -0.5740  0.0000      0.0000  0.0000  0.0000  0.0000  0.0000  0.0000  0.0000  0.0000  0.0000  0.0000
  o =  0.9024  v =  0.0000  0.0000  0.0000  0.0000  0.0000 -0.6743 -0.0523 -0.0057  0.7366 -0.0040      0.0000  0.0000  0.0000  0.0000  0.0000  0.0000  0.0000  0.0000  0.0000  0.0000
  o =  0.9026  v =  0.0000  0.0000  0.0000  0.0000  0.0000 -0.4540  0.8161 -0.0034 -0.3576  0.0053      0.0000  0.0000  0.0000  0.0000  0.0000  0.0000  0.0000  0.0000  0.0000  0.0000
  o =  0.9037  v = -0.4052  0.8246 -0.0041 -0.3947  0.0069  0.0000  0.0000  0.0000  0.0000  0.0000      0.0000  0.0000  0.0000  0.0000  0.0000  0.0000  0.0000  0.0000  0.0000  0.0000
  o =  0.9038  v = -0.6948  0.0029 -0.0061  0.7192 -0.0035  0.0000  0.0000  0.0000  0.0000  0.0000      0.0000  0.0000  0.0000  0.0000  0.0000  0.0000  0.0000  0.0000  0.0000  0.0000
  o =  0.9041  v =  0.5942  0.5657  0.0002  0.5718 -0.0001  0.0000  0.0000  0.0000  0.0000  0.0000      0.0000  0.0000  0.0000  0.0000  0.0000  0.0000  0.0000  0.0000  0.0000  0.0000
     EDDAV:  cpu time    0.1746: real time    0.1746
 BZINTS: Fermi energy:  7.013529; 44.000000 electrons
         Band energy:-619.925647;  BLOECHL correction:  0.000000
       DOS:  cpu time    0.0006: real time    0.0006
    CHARGE:  cpu time    0.0126: real time    0.0126
    MIXING:  cpu time    0.0005: real time    0.0005
    --------------------------------------------
      LOOP:  cpu time    0.2103: real time    0.2104

 eigenvalue-minimisations  :  1120
 total energy-change (2. order) :-0.3722460E+00  (-0.1046101E+00)
 number of electron      44.0000073 magnetization      -0.1313947
 augmentation part       20.3227534 magnetization      -0.1316083

 Broyden mixing:
  rms(total) = 0.96874E+00    rms(broyden)= 0.96636E+00
  rms(prec ) = 0.19496E+01
  weight for this iteration     100.00

 eigenvalues of (default mixing * dielectric matrix)
  average eigenvalue GAMMA=   1.3348
  2.6959  1.0764  0.2322

 Free energy of the ion-electron system (eV)
  ---------------------------------------------------
  alpha Z        PSCENC =       311.81991378
  Ewald energy   TEWEN  =     -5345.56183988
  -Hartree energ DENC   =     -2212.98243052
  -exchange      EXHF   =         0.00000000
  -V(xc)+E(xc)   XCENC  =       234.01193245
  PAW double counting   =      6909.02140937    -7158.71195249
  entropy T*S    EENTRO =         0.00000000
  eigenvalues    EBANDS =      -619.92564656
  atomic energy  EATOM  =      7866.74061565
  Solvation  Ediel_sol  =         0.00000000
  ---------------------------------------------------
  free energy    TOTEN  =       -15.58799819 eV

  energy without entropy =      -15.58799819  energy(sigma->0) =      -15.58799819


--------------------------------------------------------------------------------------------------------




--------------------------------------- Iteration      1(   9)  ---------------------------------------


    POTLOK:  cpu time    0.0157: real time    0.0158
    SETDIJ:  cpu time    0.0058: real time    0.0058
atom =   1  type =  1  l = 2
 
 onsite density matrix
 
spin component  1
 
  0.9054  0.0002  0.0013  0.0001 -0.0001
  0.0002  0.9053 -0.0007  0.0002  0.0012
  0.0013 -0.0007  0.6829 -0.0006  0.0003
  0.0001  0.0002 -0.0006  0.9054 -0.0011
 -0.0001  0.0012  0.0003 -0.0011  0.6832
 
spin component  2
 
  0.9036 -0.0005  0.0012 -0.0004  0.0001
 -0.0005  0.9037 -0.0005 -0.0005  0.0010
  0.0012 -0.0005  0.6881 -0.0006 -0.0004
 -0.0004 -0.0005 -0.0006  0.9036 -0.0010
  0.0001  0.0010 -0.0004 -0.0010  0.6880
 
 occupancies and eigenvectors
 
  o =  0.6827  v =  0.0052 -0.0056 -0.8481  0.0005  0.5298  0.0000  0.0000  0.0000  0.0000  0.0000      0.0000  0.0000  0.0000  0.0000  0.0000  0.0000  0.0000  0.0000  0.0000  0.0000
  o =  0.6834  v = -0.0028 -0.0029  0.5298  0.0058  0.8481  0.0000  0.0000  0.0000  0.0000  0.0000      0.0000  0.0000  0.0000  0.0000  0.0000  0.0000  0.0000  0.0000  0.0000  0.0000
  o =  0.6877  v =  0.0000  0.0000  0.0000  0.0000  0.0000 -0.0038 -0.0019  0.6530  0.0056  0.7573      0.0000  0.0000  0.0000  0.0000  0.0000  0.0000  0.0000  0.0000  0.0000  0.0000
  o =  0.6884  v =  0.0000  0.0000  0.0000  0.0000  0.0000  0.0040 -0.0048 -0.7573  0.0009  0.6530      0.0000  0.0000  0.0000  0.0000  0.0000  0.0000  0.0000  0.0000  0.0000  0.0000
  o =  0.9027  v =  0.0000  0.0000  0.0000  0.0000  0.0000 -0.5798 -0.5732 -0.0001 -0.5790  0.0000      0.0000  0.0000  0.0000  0.0000  0.0000  0.0000  0.0000  0.0000  0.0000  0.0000
  o =  0.9040  v =  0.0000  0.0000  0.0000  0.0000  0.0000 -0.6674 -0.0734 -0.0057  0.7410 -0.0041      0.0000  0.0000  0.0000  0.0000  0.0000  0.0000  0.0000  0.0000  0.0000  0.0000
  o =  0.9042  v =  0.0000  0.0000  0.0000  0.0000  0.0000  0.4673 -0.8161  0.0036  0.3400 -0.0052      0.0000  0.0000  0.0000  0.0000  0.0000  0.0000  0.0000  0.0000  0.0000  0.0000
  o =  0.9052  v = -0.4144  0.8277 -0.0041 -0.3784  0.0066  0.0000  0.0000  0.0000  0.0000  0.0000      0.0000  0.0000  0.0000  0.0000  0.0000  0.0000  0.0000  0.0000  0.0000  0.0000
  o =  0.9053  v = -0.7008 -0.0250 -0.0059  0.7129 -0.0035  0.0000  0.0000  0.0000  0.0000  0.0000      0.0000  0.0000  0.0000  0.0000  0.0000  0.0000  0.0000  0.0000  0.0000  0.0000
  o =  0.9057  v =  0.5806  0.5606  0.0000  0.5904 -0.0002  0.0000  0.0000  0.0000  0.0000  0.0000      0.0000  0.0000  0.0000  0.0000  0.0000  0.0000  0.0000  0.0000  0.0000  0.0000
atom =   2  type =  1  l = 2
 
 onsite density matrix
 
spin component  1
 
  0.9055  0.0002  0.0013  0.0001 -0.0001
  0.0002  0.9054 -0.0007  0.0001  0.0012
  0.0013 -0.0007  0.6853 -0.0006 -0.0001
  0.0001  0.0001 -0.0006  0.9054 -0.0011
 -0.0001  0.0012 -0.0001 -0.0011  0.6850
 
spin component  2
 
  0.9036 -0.0005  0.0012 -0.0004  0.0001
 -0.0005  0.9037 -0.0005 -0.0005  0.0010
  0.0012 -0.0005  0.6909 -0.0006  0.0001
 -0.0004 -0.0005 -0.0006  0.9036 -0.0010
  0.0001  0.0010  0.0001 -0.0010  0.6915
 
 occupancies and eigenvectors
 
  o =  0.6849  v = -0.0014 -0.0043  0.2907  0.0057  0.9568  0.0000  0.0000  0.0000  0.0000  0.0000      0.0000  0.0000  0.0000  0.0000  0.0000  0.0000  0.0000  0.0000  0.0000  0.0000
  o =  0.6854  v =  0.0058 -0.0047 -0.9568 -0.0010  0.2907  0.0000  0.0000  0.0000  0.0000  0.0000      0.0000  0.0000  0.0000  0.0000  0.0000  0.0000  0.0000  0.0000  0.0000  0.0000
  o =  0.6908  v =  0.0000  0.0000  0.0000  0.0000  0.0000  0.0053 -0.0032 -0.9832 -0.0020  0.1827      0.0000  0.0000  0.0000  0.0000  0.0000  0.0000  0.0000  0.0000  0.0000  0.0000
  o =  0.6915  v =  0.0000  0.0000  0.0000  0.0000  0.0000 -0.0013 -0.0040  0.1827  0.0052  0.9832      0.0000  0.0000  0.0000  0.0000  0.0000  0.0000  0.0000  0.0000  0.0000  0.0000
  o =  0.9027  v =  0.0000  0.0000  0.0000  0.0000  0.0000 -0.5825 -0.5758 -0.0000 -0.5738 -0.0000      0.0000  0.0000  0.0000  0.0000  0.0000  0.0000  0.0000  0.0000  0.0000  0.0000
  o =  0.9041  v =  0.0000  0.0000  0.0000  0.0000  0.0000 -0.6721 -0.0557 -0.0057  0.7383 -0.0040      0.0000  0.0000  0.0000  0.0000  0.0000  0.0000  0.0000  0.0000  0.0000  0.0000
  o =  0.9042  v =  0.0000  0.0000  0.0000  0.0000  0.0000 -0.4571  0.8157 -0.0034 -0.3545  0.0052      0.0000  0.0000  0.0000  0.0000  0.0000  0.0000  0.0000  0.0000  0.0000  0.0000
  o =  0.9052  v = -0.4073  0.8240 -0.0041 -0.3937  0.0067  0.0000  0.0000  0.0000  0.0000  0.0000      0.0000  0.0000  0.0000  0.0000  0.0000  0.0000  0.0000  0.0000  0.0000  0.0000
  o =  0.9054  v =  0.6927 -0.0022  0.0060 -0.7212  0.0035  0.0000  0.0000  0.0000  0.0000  0.0000      0.0000  0.0000  0.0000  0.0000  0.0000  0.0000  0.0000  0.0000  0.0000  0.0000
  o =  0.9057  v =  0.5952  0.5665  0.0002  0.5700 -0.0000  0.0000  0.0000  0.0000  0.0000  0.0000      0.0000  0.0000  0.0000  0.0000  0.0000  0.0000  0.0000  0.0000  0.0000  0.0000
     EDDAV:  cpu time    0.2035: real time    0.2035
 BZINTS: Fermi energy:  7.011493; 44.000000 electrons
         Band energy:-619.980530;  BLOECHL correction:  0.000000
       DOS:  cpu time    0.0006: real time    0.0006
    CHARGE:  cpu time    0.0126: real time    0.0126
    MIXING:  cpu time    0.0005: real time    0.0005
    --------------------------------------------
      LOOP:  cpu time    0.2386: real time    0.2387

 eigenvalue-minimisations  :  1312
 total energy-change (2. order) : 0.3217051E-02  (-0.2700891E+00)
 number of electron      44.0000073 magnetization       0.0131601
 augmentation part       20.3210254 magnetization       0.0122834

 Broyden mixing:
  rms(total) = 0.10113E+01    rms(broyden)= 0.10037E+01
  rms(prec ) = 0.20418E+01
  weight for this iteration     100.00

 eigenvalues of (default mixing * dielectric matrix)
  average eigenvalue GAMMA=   1.7382
  4.5140  1.3092  1.0889  0.0408

 Free energy of the ion-electron system (eV)
  ---------------------------------------------------
  alpha Z        PSCENC =       311.81991378
  Ewald energy   TEWEN  =     -5345.56183988
  -Hartree energ DENC   =     -2212.89545462
  -exchange      EXHF   =         0.00000000
  -V(xc)+E(xc)   XCENC  =       234.01240382
  PAW double counting   =      6916.88607201    -7166.60596144
  entropy T*S    EENTRO =         0.00000000
  eigenvalues    EBANDS =      -619.98053047
  atomic energy  EATOM  =      7866.74061565
  Solvation  Ediel_sol  =         0.00000000
  ---------------------------------------------------
  free energy    TOTEN  =       -15.58478114 eV

  energy without entropy =      -15.58478114  energy(sigma->0) =      -15.58478114


--------------------------------------------------------------------------------------------------------




--------------------------------------- Iteration      1(  10)  ---------------------------------------


    POTLOK:  cpu time    0.0156: real time    0.0158
    SETDIJ:  cpu time    0.0057: real time    0.0058
atom =   1  type =  1  l = 2
 
 onsite density matrix
 
spin component  1
 
  0.9306 -0.0002  0.0008 -0.0002 -0.0000
 -0.0002  0.9307 -0.0004 -0.0002  0.0007
  0.0008 -0.0004  0.6548 -0.0004  0.0014
 -0.0002 -0.0002 -0.0004  0.9307 -0.0007
 -0.0000  0.0007  0.0014 -0.0007  0.6567
 
spin component  2
 
  0.9308 -0.0002  0.0010 -0.0003  0.0000
 -0.0002  0.9307 -0.0005 -0.0002  0.0009
  0.0010 -0.0005  0.6448 -0.0005 -0.0015
 -0.0003 -0.0002 -0.0005  0.9307 -0.0009
  0.0000  0.0009 -0.0015 -0.0009  0.6429
 
 occupancies and eigenvectors
 
  o =  0.6421  v =  0.0000  0.0000  0.0000  0.0000  0.0000  0.0018  0.0018 -0.4773 -0.0037 -0.8787      0.0000  0.0000  0.0000  0.0000  0.0000  0.0000  0.0000  0.0000  0.0000  0.0000
  o =  0.6456  v =  0.0000  0.0000  0.0000  0.0000  0.0000 -0.0031  0.0029  0.8787  0.0001 -0.4773      0.0000  0.0000  0.0000  0.0000  0.0000  0.0000  0.0000  0.0000  0.0000  0.0000
  o =  0.6540  v = -0.0026  0.0026  0.8809 -0.0001 -0.4732  0.0000  0.0000  0.0000  0.0000  0.0000      0.0000  0.0000  0.0000  0.0000  0.0000  0.0000  0.0000  0.0000  0.0000  0.0000
  o =  0.6574  v =  0.0013  0.0017 -0.4732 -0.0028 -0.8809  0.0000  0.0000  0.0000  0.0000  0.0000      0.0000  0.0000  0.0000  0.0000  0.0000  0.0000  0.0000  0.0000  0.0000  0.0000
  o =  0.9302  v = -0.5948 -0.5712 -0.0001 -0.5656 -0.0000  0.0000  0.0000  0.0000  0.0000  0.0000      0.0000  0.0000  0.0000  0.0000  0.0000  0.0000  0.0000  0.0000  0.0000  0.0000
  o =  0.9302  v =  0.0000  0.0000  0.0000  0.0000  0.0000 -0.5708 -0.5767  0.0000 -0.5844  0.0001      0.0000  0.0000  0.0000  0.0000  0.0000  0.0000  0.0000  0.0000  0.0000  0.0000
  o =  0.9308  v =  0.7823 -0.2494  0.0034 -0.5708  0.0007  0.0000  0.0000  0.0000  0.0000  0.0000      0.0000  0.0000  0.0000  0.0000  0.0000  0.0000  0.0000  0.0000  0.0000  0.0000
  o =  0.9309  v =  0.1850 -0.7820  0.0010  0.5952 -0.0036  0.0000  0.0000  0.0000  0.0000  0.0000      0.0000  0.0000  0.0000  0.0000  0.0000  0.0000  0.0000  0.0000  0.0000  0.0000
  o =  0.9310  v =  0.0000  0.0000  0.0000  0.0000  0.0000 -0.3181  0.8115 -0.0016 -0.4901  0.0040      0.0000  0.0000  0.0000  0.0000  0.0000  0.0000  0.0000  0.0000  0.0000  0.0000
  o =  0.9310  v =  0.0000  0.0000  0.0000  0.0000  0.0000  0.7569 -0.0939  0.0041 -0.6467  0.0018      0.0000  0.0000  0.0000  0.0000  0.0000  0.0000  0.0000  0.0000  0.0000  0.0000
atom =   2  type =  1  l = 2
 
 onsite density matrix
 
spin component  1
 
  0.9305 -0.0002  0.0009 -0.0002 -0.0001
 -0.0002  0.9305 -0.0005 -0.0002  0.0008
  0.0009 -0.0005  0.6530 -0.0004 -0.0012
 -0.0002 -0.0002 -0.0004  0.9305 -0.0008
 -0.0001  0.0008 -0.0012 -0.0008  0.6509
 
spin component  2
 
  0.9308 -0.0003  0.0011 -0.0003  0.0001
 -0.0003  0.9308 -0.0005 -0.0003  0.0009
  0.0011 -0.0005  0.6465 -0.0005  0.0013
 -0.0003 -0.0003 -0.0005  0.9308 -0.0009
  0.0001  0.0009  0.0013 -0.0009  0.6488
 
 occupancies and eigenvectors
 
  o =  0.6459  v =  0.0000  0.0000  0.0000  0.0000  0.0000  0.0033 -0.0028 -0.9090 -0.0004  0.4168      0.0000  0.0000  0.0000  0.0000  0.0000  0.0000  0.0000  0.0000  0.0000  0.0000
  o =  0.6494  v =  0.0000  0.0000  0.0000  0.0000  0.0000 -0.0017 -0.0022  0.4168  0.0038  0.9090      0.0000  0.0000  0.0000  0.0000  0.0000  0.0000  0.0000  0.0000  0.0000  0.0000
  o =  0.6503  v = -0.0011 -0.0019  0.4157  0.0032  0.9095  0.0000  0.0000  0.0000  0.0000  0.0000      0.0000  0.0000  0.0000  0.0000  0.0000  0.0000  0.0000  0.0000  0.0000  0.0000
  o =  0.6536  v =  0.0031 -0.0029 -0.9095 -0.0002  0.4157  0.0000  0.0000  0.0000  0.0000  0.0000      0.0000  0.0000  0.0000  0.0000  0.0000  0.0000  0.0000  0.0000  0.0000  0.0000
  o =  0.9301  v =  0.5746  0.5713 -0.0000  0.5860 -0.0002  0.0000  0.0000  0.0000  0.0000  0.0000      0.0000  0.0000  0.0000  0.0000  0.0000  0.0000  0.0000  0.0000  0.0000  0.0000
  o =  0.9302  v =  0.0000  0.0000  0.0000  0.0000  0.0000  0.5804  0.5817  0.0001  0.5699  0.0001      0.0000  0.0000  0.0000  0.0000  0.0000  0.0000  0.0000  0.0000  0.0000  0.0000
  o =  0.9307  v =  0.2282 -0.7995  0.0014  0.5556 -0.0040  0.0000  0.0000  0.0000  0.0000  0.0000      0.0000  0.0000  0.0000  0.0000  0.0000  0.0000  0.0000  0.0000  0.0000  0.0000
  o =  0.9307  v =  0.7860 -0.1855  0.0038 -0.5898  0.0009  0.0000  0.0000  0.0000  0.0000  0.0000      0.0000  0.0000  0.0000  0.0000  0.0000  0.0000  0.0000  0.0000  0.0000  0.0000
  o =  0.9310  v =  0.0000  0.0000  0.0000  0.0000  0.0000  0.3700  0.4351  0.0022 -0.8208  0.0041      0.0000  0.0000  0.0000  0.0000  0.0000  0.0000  0.0000  0.0000  0.0000  0.0000
  o =  0.9310  v =  0.0000  0.0000  0.0000  0.0000  0.0000  0.7254 -0.6873  0.0039 -0.0373 -0.0019      0.0000  0.0000  0.0000  0.0000  0.0000  0.0000  0.0000  0.0000  0.0000  0.0000
     EDDAV:  cpu time    0.1990: real time    0.1993
 BZINTS: Fermi energy:  7.039791; 44.000000 electrons
         Band energy:-623.302466;  BLOECHL correction: -0.010954
       DOS:  cpu time    0.0016: real time    0.0016
    CHARGE:  cpu time    0.0129: real time    0.0129
    MIXING:  cpu time    0.0006: real time    0.0006
    --------------------------------------------
      LOOP:  cpu time    0.2355: real time    0.2358

 eigenvalue-minimisations  :  1248
 total energy-change (2. order) :-0.1987879E-02  (-0.4223688E-01)
 number of electron      44.0000073 magnetization       0.0150782
 augmentation part       20.3554222 magnetization       0.0176096

 Broyden mixing:
  rms(total) = 0.40725E+00    rms(broyden)= 0.40385E+00
  rms(prec ) = 0.42348E+00
  weight for this iteration     100.00

 eigenvalues of (default mixing * dielectric matrix)
  average eigenvalue GAMMA=   1.4043
  4.5200  1.3188  1.0821  0.0410  0.0594

 Free energy of the ion-electron system (eV)
  ---------------------------------------------------
  alpha Z        PSCENC =       311.81991378
  Ewald energy   TEWEN  =     -5345.56183988
  -Hartree energ DENC   =     -2209.43968448
  -exchange      EXHF   =         0.00000000
  -V(xc)+E(xc)   XCENC  =       233.95079283
  PAW double counting   =      7042.53032947    -7292.32442996
  entropy T*S    EENTRO =         0.00000000
  eigenvalues    EBANDS =      -623.30246642
  atomic energy  EATOM  =      7866.74061565
  Solvation  Ediel_sol  =         0.00000000
  ---------------------------------------------------
  free energy    TOTEN  =       -15.58676902 eV

  energy without entropy =      -15.58676902  energy(sigma->0) =      -15.58676902


--------------------------------------------------------------------------------------------------------




--------------------------------------- Iteration      1(  11)  ---------------------------------------


    POTLOK:  cpu time    0.0161: real time    0.0163
    SETDIJ:  cpu time    0.0059: real time    0.0059
atom =   1  type =  1  l = 2
 
 onsite density matrix
 
spin component  1
 
  0.9310 -0.0002  0.0009 -0.0002 -0.0001
 -0.0002  0.9310 -0.0005 -0.0002  0.0008
  0.0009 -0.0005  0.6578 -0.0004  0.0035
 -0.0002 -0.0002 -0.0004  0.9310 -0.0008
 -0.0001  0.0008  0.0035 -0.0008  0.6629
 
spin component  2
 
  0.9310 -0.0002  0.0009 -0.0003  0.0000
 -0.0002  0.9310 -0.0004 -0.0003  0.0008
  0.0009 -0.0004  0.6411 -0.0005 -0.0037
 -0.0003 -0.0003 -0.0005  0.9310 -0.0008
  0.0000  0.0008 -0.0037 -0.0008  0.6357
 
 occupancies and eigenvectors
 
  o =  0.6338  v =  0.0000  0.0000  0.0000  0.0000  0.0000  0.0016  0.0017 -0.4555 -0.0031 -0.8902      0.0000  0.0000  0.0000  0.0000  0.0000  0.0000  0.0000  0.0000  0.0000  0.0000
  o =  0.6430  v =  0.0000  0.0000  0.0000  0.0000  0.0000 -0.0028  0.0025  0.8902  0.0002 -0.4555      0.0000  0.0000  0.0000  0.0000  0.0000  0.0000  0.0000  0.0000  0.0000  0.0000
  o =  0.6561  v =  0.0030 -0.0030 -0.8910 -0.0001  0.4539  0.0000  0.0000  0.0000  0.0000  0.0000      0.0000  0.0000  0.0000  0.0000  0.0000  0.0000  0.0000  0.0000  0.0000  0.0000
  o =  0.6647  v = -0.0013 -0.0019  0.4539  0.0033  0.8910  0.0000  0.0000  0.0000  0.0000  0.0000      0.0000  0.0000  0.0000  0.0000  0.0000  0.0000  0.0000  0.0000  0.0000  0.0000
  o =  0.9305  v =  0.0000  0.0000  0.0000  0.0000  0.0000 -0.5535 -0.5643 -0.0000 -0.6125  0.0001      0.0000  0.0000  0.0000  0.0000  0.0000  0.0000  0.0000  0.0000  0.0000  0.0000
  o =  0.9306  v =  0.6185  0.5824  0.0002  0.5275  0.0001  0.0000  0.0000  0.0000  0.0000  0.0000      0.0000  0.0000  0.0000  0.0000  0.0000  0.0000  0.0000  0.0000  0.0000  0.0000
  o =  0.9312  v =  0.7826 -0.3964  0.0040 -0.4800  0.0001  0.0000  0.0000  0.0000  0.0000  0.0000      0.0000  0.0000  0.0000  0.0000  0.0000  0.0000  0.0000  0.0000  0.0000  0.0000
  o =  0.9312  v = -0.0704  0.7097 -0.0004 -0.7009  0.0042  0.0000  0.0000  0.0000  0.0000  0.0000      0.0000  0.0000  0.0000  0.0000  0.0000  0.0000  0.0000  0.0000  0.0000  0.0000
  o =  0.9313  v =  0.0000  0.0000  0.0000  0.0000  0.0000 -0.2163  0.8076 -0.0010 -0.5486  0.0036      0.0000  0.0000  0.0000  0.0000  0.0000  0.0000  0.0000  0.0000  0.0000  0.0000
  o =  0.9313  v =  0.0000  0.0000  0.0000  0.0000  0.0000  0.8042 -0.1712  0.0037 -0.5691  0.0012      0.0000  0.0000  0.0000  0.0000  0.0000  0.0000  0.0000  0.0000  0.0000  0.0000
atom =   2  type =  1  l = 2
 
 onsite density matrix
 
spin component  1
 
  0.9308 -0.0002  0.0008 -0.0002 -0.0001
 -0.0002  0.9308 -0.0004 -0.0002  0.0007
  0.0008 -0.0004  0.6490 -0.0003 -0.0034
 -0.0002 -0.0002 -0.0003  0.9307 -0.0007
 -0.0001  0.0007 -0.0034 -0.0007  0.6437
 
spin component  2
 
  0.9311 -0.0003  0.0011 -0.0002  0.0000
 -0.0003  0.9311 -0.0005 -0.0002  0.0010
  0.0011 -0.0005  0.6496 -0.0006  0.0036
 -0.0002 -0.0002 -0.0006  0.9312 -0.0010
  0.0000  0.0010  0.0036 -0.0010  0.6553
 
 occupancies and eigenvectors
 
  o =  0.6420  v = -0.0010 -0.0016  0.4344  0.0027  0.9007  0.0000  0.0000  0.0000  0.0000  0.0000      0.0000  0.0000  0.0000  0.0000  0.0000  0.0000  0.0000  0.0000  0.0000  0.0000
  o =  0.6479  v =  0.0000  0.0000  0.0000  0.0000  0.0000  0.0034 -0.0032 -0.9009 -0.0004  0.4340      0.0000  0.0000  0.0000  0.0000  0.0000  0.0000  0.0000  0.0000  0.0000  0.0000
  o =  0.6507  v =  0.0027 -0.0025 -0.9007 -0.0000  0.4344  0.0000  0.0000  0.0000  0.0000  0.0000      0.0000  0.0000  0.0000  0.0000  0.0000  0.0000  0.0000  0.0000  0.0000  0.0000
  o =  0.6570  v =  0.0000  0.0000  0.0000  0.0000  0.0000 -0.0019 -0.0023  0.4339  0.0042  0.9009      0.0000  0.0000  0.0000  0.0000  0.0000  0.0000  0.0000  0.0000  0.0000  0.0000
  o =  0.9303  v =  0.5544  0.5578 -0.0000  0.6176 -0.0002  0.0000  0.0000  0.0000  0.0000  0.0000      0.0000  0.0000  0.0000  0.0000  0.0000  0.0000  0.0000  0.0000  0.0000  0.0000
  o =  0.9307  v =  0.0000  0.0000  0.0000  0.0000  0.0000  0.5997  0.5940  0.0001  0.5362  0.0002      0.0000  0.0000  0.0000  0.0000  0.0000  0.0000  0.0000  0.0000  0.0000  0.0000
  o =  0.9310  v = -0.0514 -0.7177  0.0001  0.6944 -0.0034  0.0000  0.0000  0.0000  0.0000  0.0000      0.0000  0.0000  0.0000  0.0000  0.0000  0.0000  0.0000  0.0000  0.0000  0.0000
  o =  0.9310  v =  0.8307 -0.4167  0.0035 -0.3692 -0.0004  0.0000  0.0000  0.0000  0.0000  0.0000      0.0000  0.0000  0.0000  0.0000  0.0000  0.0000  0.0000  0.0000  0.0000  0.0000
  o =  0.9314  v =  0.0000  0.0000  0.0000  0.0000  0.0000  0.3022 -0.7886  0.0015  0.5355 -0.0046      0.0000  0.0000  0.0000  0.0000  0.0000  0.0000  0.0000  0.0000  0.0000  0.0000
  o =  0.9314  v =  0.0000  0.0000  0.0000  0.0000  0.0000 -0.7409  0.1591 -0.0046  0.6524 -0.0020      0.0000  0.0000  0.0000  0.0000  0.0000  0.0000  0.0000  0.0000  0.0000  0.0000
     EDDAV:  cpu time    0.1646: real time    0.1647
 BZINTS: Fermi energy:  7.048528; 44.000000 electrons
         Band energy:-623.406048;  BLOECHL correction: -0.001994
       DOS:  cpu time    0.0015: real time    0.0015
    CHARGE:  cpu time    0.0125: real time    0.0125
    MIXING:  cpu time    0.0006: real time    0.0006
    --------------------------------------------
      LOOP:  cpu time    0.2012: real time    0.2014

 eigenvalue-minimisations  :  1056
 total energy-change (2. order) :-0.4320965E-01  (-0.1485386E-01)
 number of electron      44.0000074 magnetization       0.0250406
 augmentation part       20.3504319 magnetization       0.0279463

 Broyden mixing:
  rms(total) = 0.75078E+00    rms(broyden)= 0.74980E+00
  rms(prec ) = 0.75365E+00
  weight for this iteration     100.00

 eigenvalues of (default mixing * dielectric matrix)
  average eigenvalue GAMMA=   1.2607
  4.5889  1.4028  1.0245  0.4125  0.0409  0.0945

 Free energy of the ion-electron system (eV)
  ---------------------------------------------------
  alpha Z        PSCENC =       311.81991378
  Ewald energy   TEWEN  =     -5345.56183988
  -Hartree energ DENC   =     -2209.38985402
  -exchange      EXHF   =         0.00000000
  -V(xc)+E(xc)   XCENC  =       233.94739050
  PAW double counting   =      7043.46531494    -7293.24547114
  entropy T*S    EENTRO =         0.00000000
  eigenvalues    EBANDS =      -623.40604849
  atomic energy  EATOM  =      7866.74061565
  Solvation  Ediel_sol  =         0.00000000
  ---------------------------------------------------
  free energy    TOTEN  =       -15.62997867 eV

  energy without entropy =      -15.62997867  energy(sigma->0) =      -15.62997867


--------------------------------------------------------------------------------------------------------




--------------------------------------- Iteration      1(  12)  ---------------------------------------


    POTLOK:  cpu time    0.0157: real time    0.0158
    SETDIJ:  cpu time    0.0058: real time    0.0058
atom =   1  type =  1  l = 2
 
 onsite density matrix
 
spin component  1
 
  0.9317 -0.0002  0.0011 -0.0001 -0.0002
 -0.0002  0.9318 -0.0009 -0.0001  0.0010
  0.0011 -0.0009  0.6426 -0.0008  0.0114
 -0.0001 -0.0001 -0.0008  0.9320 -0.0013
 -0.0002  0.0010  0.0114 -0.0013  0.6601
 
spin component  2
 
  0.9322 -0.0002  0.0008 -0.0004  0.0003
 -0.0002  0.9321  0.0001 -0.0004  0.0006
  0.0008  0.0001  0.6549 -0.0000 -0.0124
 -0.0004 -0.0004 -0.0000  0.9319 -0.0002
  0.0003  0.0006 -0.0124 -0.0002  0.6360
 
 occupancies and eigenvectors
 
  o =  0.6298  v =  0.0000  0.0000  0.0000  0.0000  0.0000  0.0020  0.0019 -0.4443 -0.0008 -0.8959      0.0000  0.0000  0.0000  0.0000  0.0000  0.0000  0.0000  0.0000  0.0000  0.0000
  o =  0.6370  v = -0.0036  0.0044  0.8965  0.0005 -0.4430  0.0000  0.0000  0.0000  0.0000  0.0000      0.0000  0.0000  0.0000  0.0000  0.0000  0.0000  0.0000  0.0000  0.0000  0.0000
  o =  0.6611  v =  0.0000  0.0000  0.0000  0.0000  0.0000 -0.0022  0.0008  0.8959 -0.0003 -0.4443      0.0000  0.0000  0.0000  0.0000  0.0000  0.0000  0.0000  0.0000  0.0000  0.0000
  o =  0.6657  v =  0.0010  0.0019 -0.4430 -0.0056 -0.8965  0.0000  0.0000  0.0000  0.0000  0.0000      0.0000  0.0000  0.0000  0.0000  0.0000  0.0000  0.0000  0.0000  0.0000  0.0000
  o =  0.9314  v =  0.0000  0.0000  0.0000  0.0000  0.0000 -0.4621 -0.5015 -0.0013 -0.7314 -0.0008      0.0000  0.0000  0.0000  0.0000  0.0000  0.0000  0.0000  0.0000  0.0000  0.0000
  o =  0.9315  v = -0.7487 -0.6276 -0.0002 -0.2136 -0.0007  0.0000  0.0000  0.0000  0.0000  0.0000      0.0000  0.0000  0.0000  0.0000  0.0000  0.0000  0.0000  0.0000  0.0000  0.0000
  o =  0.9320  v =  0.6584 -0.7413  0.0051 -0.1299 -0.0026  0.0000  0.0000  0.0000  0.0000  0.0000      0.0000  0.0000  0.0000  0.0000  0.0000  0.0000  0.0000  0.0000  0.0000  0.0000
[...]
     29      18.9544      0.00000
     30      21.3672      0.00000
     31      21.3702      0.00000
     32      23.9357      0.00000

 k-point     5 :      -0.0000   -0.0000    0.5000
  band No.  band energies     occupation 
      1     -55.7890      1.00000
      2     -55.7854      1.00000
      3     -55.7809      1.00000
      4     -55.7798      1.00000
      5     -55.7662      1.00000
      6     -55.7618      1.00000
      7     -12.3351      1.00000
      8     -11.9310      1.00000
      9      -0.4212      1.00000
     10      -0.2087      1.00000
     11       1.0369      1.00000
     12       1.2093      1.00000
     13       1.7282      1.00000
     14       1.9974      1.00000
     15       4.0412      1.00000
     16       4.0843      1.00000
     17       4.6949      1.00000
     18       4.7093      1.00000
     19       4.9076      1.00000
     20       4.9531      1.00000
     21       6.9794      1.00000
     22       7.0192      1.00000
     23       7.0804      0.00000
     24       7.1296      0.00000
     25      14.6531      0.00000
     26      14.7844      0.00000
     27      16.9132      0.00000
     28      17.0307      0.00000
     29      18.6628      0.00000
     30      18.7824      0.00000
     31      22.7541      0.00000
     32      22.8416      0.00000

 k-point     6 :       0.5000   -0.0000    0.5000
  band No.  band energies     occupation 
      1     -55.7947      1.00000
      2     -55.7937      1.00000
      3     -55.7735      1.00000
      4     -55.7722      1.00000
      5     -55.7707      1.00000
      6     -55.7583      1.00000
      7     -12.3295      1.00000
      8     -11.9228      1.00000
      9      -1.3802      1.00000
     10       0.0244      1.00000
     11       1.3724      1.00000
     12       1.3921      1.00000
     13       2.5838      1.00000
     14       2.5970      1.00000
     15       2.8533      1.00000
     16       4.6045      1.00000
     17       4.6135      1.00000
     18       4.7477      1.00000
     19       4.7511      1.00000
     20       5.0767      1.00000
     21       5.7773      1.00000
     22       6.3198      1.00000
     23       8.2457      0.00000
     24       8.2487      0.00000
     25      12.7724      0.00000
     26      13.5962      0.00000
     27      17.1407      0.00000
     28      17.6835      0.00000
     29      18.9544      0.00000
     30      21.3672      0.00000
     31      21.3702      0.00000
     32      23.9330      0.00000

 k-point     7 :      -0.0000    0.5000    0.5000
  band No.  band energies     occupation 
      1     -55.7951      1.00000
      2     -55.7925      1.00000
      3     -55.7758      1.00000
      4     -55.7749      1.00000
      5     -55.7650      1.00000
      6     -55.7598      1.00000
      7     -12.3295      1.00000
      8     -11.9228      1.00000
      9      -1.3802      1.00000
     10       0.0244      1.00000
     11       1.3722      1.00000
     12       1.3924      1.00000
     13       2.5838      1.00000
     14       2.5970      1.00000
     15       2.8533      1.00000
     16       4.6045      1.00000
     17       4.6130      1.00000
     18       4.7481      1.00000
     19       4.7510      1.00000
     20       5.0763      1.00000
     21       5.7781      1.00000
     22       6.3194      1.00000
     23       8.2457      0.00000
     24       8.2488      0.00000
     25      12.7724      0.00000
     26      13.5962      0.00000
     27      17.1406      0.00000
     28      17.6836      0.00000
     29      18.9544      0.00000
     30      21.3672      0.00000
     31      21.3702      0.00000
     32      23.9329      0.00000

 k-point     8 :       0.5000    0.5000    0.5000
  band No.  band energies     occupation 
      1     -55.7874      1.00000
      2     -55.7850      1.00000
      3     -55.7641      1.00000
      4     -55.7623      1.00000
      5     -55.7542      1.00000
      6     -55.7532      1.00000
      7     -13.0693      1.00000
      8     -12.6996      1.00000
      9       0.5686      1.00000
     10       0.7154      1.00000
     11       2.0701      1.00000
     12       2.0704      1.00000
     13       2.3239      1.00000
     14       2.3241      1.00000
     15       4.2220      1.00000
     16       4.2238      1.00000
     17       4.2511      1.00000
     18       4.2525      1.00000
     19       4.5158      1.00000
     20       4.5687      1.00000
     21       7.0299      1.00000
     22       7.0301      1.00000
     23       7.2268      0.00000
     24       7.2269      0.00000
     25      11.3877      0.00000
     26      11.4434      0.00000
     27      19.2191      0.00000
     28      19.2639      0.00000
     29      23.5332      0.00000
     30      23.5333      0.00000
     31      23.5694      0.00000
     32      23.5694      0.00000


--------------------------------------------------------------------------------------------------------


 soft charge-density along one line, spin component           1
         0         1         2         3         4         5         6         7         8         9
 total charge-density along one line
 
 soft charge-density along one line, spin component           2
         0         1         2         3         4         5         6         7         8         9
 total charge-density along one line
 
 pseudopotential strength for first ion, spin component:           1
-60.300  -0.004  -0.005   9.783   0.002   0.002   0.003   0.003
 -0.004 -60.301   0.000   0.002   9.783  -0.001   0.000   0.003
 -0.005   0.000 -60.301   0.002  -0.001   9.783   0.003   0.000
  9.783   0.002   0.002   5.584  -0.001  -0.001  -0.002  -0.002
  0.002   9.783  -0.001  -0.001   5.584  -0.000  -0.000  -0.002
  0.002  -0.001   9.783  -0.001  -0.000   5.584  -0.002  -0.000
  0.003   0.000   0.003  -0.002  -0.000  -0.002  -7.666  -0.001
  0.003   0.003   0.000  -0.002  -0.002  -0.000  -0.001  -7.666
 -0.010   0.020  -0.010   0.005  -0.010   0.005   0.015   0.002
  0.000   0.003   0.003  -0.000  -0.002  -0.002  -0.001  -0.001
 -0.017  -0.000   0.017   0.009   0.000  -0.009   0.007   0.012
  0.003   0.000   0.003  -0.002  -0.000  -0.002  -8.317  -0.001
  0.003   0.003   0.000  -0.002  -0.002  -0.000  -0.001  -8.317
 -0.010   0.020  -0.010   0.005  -0.010   0.005   0.015   0.002
  0.000   0.003   0.003  -0.000  -0.002  -0.002  -0.001  -0.001
 -0.017  -0.000   0.017   0.009   0.000  -0.009   0.007   0.012
 -0.004  -0.004  -0.004   0.001   0.001   0.001   0.001   0.001
 -0.008  -0.009  -0.009   0.002   0.002   0.002   0.002   0.001
 pseudopotential strength for first ion, spin component:           2
-60.301  -0.003  -0.002   9.783   0.001   0.000  -0.003  -0.003
 -0.003 -60.301  -0.008   0.001   9.783   0.003  -0.000  -0.003
 -0.002  -0.008 -60.301   0.000   0.003   9.783  -0.003  -0.000
  9.783   0.001   0.000   5.584  -0.000  -0.000   0.002   0.002
  0.001   9.783   0.003  -0.000   5.584  -0.001   0.000   0.002
  0.000   0.003   9.783  -0.000  -0.001   5.584   0.002   0.000
 -0.003  -0.000  -0.003   0.002   0.000   0.002  -7.666  -0.001
 -0.003  -0.003  -0.000   0.002   0.002   0.000  -0.001  -7.666
  0.010  -0.020   0.010  -0.005   0.010  -0.005  -0.008  -0.006
 -0.000  -0.003  -0.003   0.000   0.002   0.002  -0.001  -0.001
  0.017  -0.000  -0.017  -0.009  -0.000   0.009  -0.007  -0.006
 -0.003  -0.000  -0.003   0.002   0.000   0.002  -8.317  -0.001
 -0.003  -0.003  -0.000   0.002   0.002   0.000  -0.001  -8.317
  0.010  -0.019   0.010  -0.005   0.010  -0.005  -0.008  -0.006
 -0.000  -0.003  -0.003   0.000   0.002   0.002  -0.001  -0.001
  0.017  -0.000  -0.017  -0.009  -0.000   0.009  -0.007  -0.006
  0.004   0.004   0.004  -0.001  -0.001  -0.001   0.000   0.000
  0.009   0.009   0.009  -0.002  -0.002  -0.002   0.000   0.001
 total augmentation occupancy for first ion, spin component:           1
  1.998  -0.000  -0.000  -0.009  -0.000  -0.000  -0.000  -0.000  -0.000  -0.000  -0.000   0.000   0.000   0.000   0.000   0.000
 -0.000   1.998  -0.000  -0.000  -0.009  -0.000  -0.000   0.000  -0.000   0.000   0.000   0.000  -0.000   0.000  -0.000  -0.000
 -0.000  -0.000   1.998  -0.000  -0.000  -0.009   0.000  -0.000   0.000   0.000  -0.000  -0.000   0.000  -0.000  -0.000  -0.000
 -0.009  -0.000  -0.000   0.082  -0.003  -0.003  -0.000  -0.000  -0.000  -0.000  -0.000  -0.000  -0.000   0.000  -0.000   0.000
 -0.000  -0.009  -0.000  -0.003   0.082  -0.003   0.000   0.000  -0.000   0.000  -0.000   0.000   0.000   0.000   0.000   0.000
 -0.000  -0.000  -0.009  -0.003  -0.003   0.082  -0.000   0.000  -0.000   0.000  -0.000   0.000   0.000   0.000   0.000   0.000
 -0.000  -0.000   0.000  -0.000   0.000  -0.000   3.779  -0.002   0.056  -0.002   0.000  -1.609  -0.001  -0.045  -0.001  -0.000
 -0.000   0.000  -0.000  -0.000   0.000   0.000  -0.002   3.779  -0.028  -0.002   0.049  -0.001  -1.609   0.022  -0.001  -0.039
 -0.000  -0.000   0.000  -0.000  -0.000  -0.000   0.056  -0.028   5.267  -0.028   0.003  -0.048   0.024  -4.018   0.024  -0.002
 -0.000   0.000   0.000  -0.000   0.000   0.000  -0.002  -0.002  -0.028   3.779  -0.049  -0.001  -0.001   0.023  -1.610   0.039
 -0.000   0.000  -0.000  -0.000  -0.000  -0.000   0.000   0.049   0.003  -0.049   5.268  -0.000  -0.041  -0.002   0.041  -4.019
  0.000   0.000  -0.000  -0.000   0.000   0.000  -1.609  -0.001  -0.048  -0.001  -0.000   1.499   0.002   0.036   0.002   0.000
  0.000  -0.000   0.000  -0.000   0.000   0.000  -0.001  -1.609   0.024  -0.001  -0.041   0.002   1.499  -0.018   0.002   0.031
  0.000   0.000  -0.000   0.000   0.000   0.000  -0.045   0.022  -4.018   0.023  -0.002   0.036  -0.018   4.132  -0.018   0.001
  0.000  -0.000  -0.000  -0.000   0.000   0.000  -0.001  -0.001   0.024  -1.610   0.041   0.002   0.002  -0.018   1.499  -0.031
  0.000  -0.000  -0.000   0.000   0.000   0.000  -0.000  -0.039  -0.002   0.039  -4.019   0.000   0.031   0.001  -0.031   4.133
 -0.000   0.000   0.000   0.000  -0.000  -0.000   0.010   0.010  -0.000   0.010  -0.000  -0.007  -0.007  -0.000  -0.007  -0.000
  0.000  -0.000  -0.000  -0.000   0.000  -0.000   0.001   0.001   0.000   0.001   0.000   0.001   0.001   0.000   0.001  -0.000
 total augmentation occupancy for first ion, spin component:           2
  0.000  -0.000  -0.000   0.000  -0.000  -0.000  -0.002  -0.002   0.008  -0.000   0.013   0.002   0.002  -0.007   0.000  -0.013
 -0.000   0.000   0.000  -0.000  -0.000   0.000  -0.000  -0.002  -0.015  -0.002   0.000   0.000   0.002   0.015   0.002  -0.000
 -0.000   0.000   0.000  -0.000   0.000  -0.000  -0.002  -0.000   0.008  -0.002  -0.013   0.002   0.000  -0.007   0.002   0.013
  0.000  -0.000  -0.000  -0.000   0.000   0.000  -0.001  -0.001  -0.055   0.000  -0.096   0.001   0.001   0.029  -0.000   0.051
 -0.000  -0.000   0.000   0.000   0.000  -0.000   0.000  -0.001   0.112  -0.001  -0.000  -0.000   0.001  -0.059   0.001   0.000
 -0.000   0.000  -0.000   0.000  -0.000   0.000  -0.001   0.000  -0.056  -0.001   0.097   0.001  -0.000   0.030   0.001  -0.051
 -0.002  -0.000  -0.002  -0.001   0.000  -0.001   0.000   0.000  -0.031  -0.000  -0.016  -0.000  -0.000   0.019   0.000   0.010
 -0.002  -0.002  -0.000  -0.001  -0.001   0.000   0.000  -0.000  -0.008  -0.000  -0.024  -0.000   0.000   0.005   0.000   0.015
  0.008  -0.015   0.008  -0.055   0.112  -0.056  -0.031  -0.008  -0.034  -0.034   0.018   0.017   0.004   0.020   0.019  -0.011
 -0.000  -0.002  -0.002   0.000  -0.001  -0.001  -0.000  -0.000  -0.034  -0.003  -0.054   0.000   0.000   0.021   0.002   0.034
  0.013   0.000  -0.013  -0.096  -0.000   0.097  -0.016  -0.024   0.018  -0.054  -0.005   0.009   0.013  -0.011   0.030   0.003
  0.002   0.000   0.002   0.001  -0.000   0.001  -0.000  -0.000   0.017   0.000   0.009   0.000   0.000  -0.011  -0.000  -0.006
  0.002   0.002   0.000   0.001   0.001  -0.000  -0.000   0.000   0.004   0.000   0.013   0.000  -0.000  -0.003  -0.000  -0.009
 -0.007   0.015  -0.007   0.029  -0.059   0.030   0.019   0.005   0.020   0.021  -0.011  -0.011  -0.003  -0.012  -0.013   0.006
  0.000   0.002   0.002  -0.000   0.001   0.001   0.000   0.000   0.019   0.002   0.030  -0.000  -0.000  -0.013  -0.002  -0.020
 -0.013  -0.000   0.013   0.051   0.000  -0.051   0.010   0.015  -0.011   0.034   0.003  -0.006  -0.009   0.006  -0.020  -0.001
  0.002   0.002   0.002   0.004   0.004   0.004  -0.003  -0.001  -0.001   0.006  -0.002   0.000   0.000   0.001  -0.001   0.001
 -0.001  -0.001  -0.001   0.000   0.000   0.000   0.001   0.001  -0.000  -0.003  -0.000  -0.000  -0.000   0.000   0.000   0.000


------------------------ aborting loop because EDIFF is reached ----------------------------------------


 


 total charge     
 
# of ion       s       p       d       tot
------------------------------------------
    1        0.174   6.159   8.158  14.491
    2        0.174   6.159   8.163  14.496
    3        1.569   3.390   0.000   4.960
    4        1.569   3.390   0.000   4.960
--------------------------------------------------
tot          3.487  19.098  16.321  38.907
 


 magnetization (x)
 
# of ion       s       p       d       tot
------------------------------------------
    1       -0.000   0.000  -0.006  -0.006
    2        0.000  -0.000   0.006   0.006
    3       -0.007   0.247   0.000   0.240
    4        0.007  -0.247   0.000  -0.240
--------------------------------------------------
tot         -0.000  -0.000   0.000   0.000
 
    CHARGE:  cpu time    0.0126: real time    0.0126
    FORLOC:  cpu time    0.0006: real time    0.0006
    FORNL :  cpu time    0.0158: real time    0.0158
    STRESS:  cpu time    0.0577: real time    0.0577
    FORCOR:  cpu time    0.0152: real time    0.0152
    FORHAR:  cpu time    0.0017: real time    0.0017
    MIXING:  cpu time    0.0015: real time    0.0015
    OFIELD:  cpu time    0.0000: real time    0.0000

  FORCE on cell =-STRESS in cart. coord.  units (eV):
  Direction    XX          YY          ZZ          XY          YZ          ZX
  --------------------------------------------------------------------------------------
  Alpha Z   311.81991   311.81991   311.81991
  Ewald   -1781.85627 -1781.85627 -1781.85627     0.00000    -0.00000     0.00000
  Hartree   736.15278   736.15830   736.15280    -0.15626    -0.15681    -0.15816
  E(xc)    -297.99462  -297.99462  -297.99464     0.00270     0.00271     0.00271
  Local     187.34536   187.33106   187.34518     0.28897     0.29036     0.29376
  n-local  -239.51031  -239.51251  -239.51035    -0.04110    -0.04100    -0.04043
  augment   365.83742   365.84086   365.83663    -0.07227    -0.07270    -0.07453
  Kinetic   717.01624   717.02311   717.01640    -0.94379    -0.94404    -0.94594
  Fock        0.00000     0.00000     0.00000     0.00000     0.00000     0.00000
  -------------------------------------------------------------------------------------
  Total      -1.18947    -1.19015    -1.19032    -0.92175    -0.92148    -0.92258
  in kB     -52.56371   -52.59369   -52.60141   -40.73301   -40.72085   -40.76968
  external pressure =      -52.59 kB  Pullay stress =        0.00 kB


 VOLUME and BASIS-vectors are now :
 -----------------------------------------------------------------------------
  energy-cutoff  :      450.00
  volume of cell :       36.26
      direct lattice vectors                 reciprocal lattice vectors
     4.170000000  2.085000000  2.085000000     0.359712230 -0.119904077 -0.119904077
     2.085000000  4.170000000  2.085000000    -0.119904077  0.359712230 -0.119904077
     2.085000000  2.085000000  4.170000000    -0.119904077 -0.119904077  0.359712230

  length of vectors
     5.107186114  5.107186114  5.107186114     0.397676833  0.397676833  0.397676833


 FORCES acting on ions
    electron-ion (+dipol)            ewald-force                    non-local-force                 convergence-correction
 -----------------------------------------------------------------------------------------------
   -.301E-02 0.362E-02 -.447E-02   -.227E-12 -.853E-13 -.114E-12   -.874E-03 -.447E-02 -.966E-03   0.311E-02 0.114E-02 0.440E-02
   0.157E-02 0.663E-02 0.995E-03   -.284E-13 0.853E-13 0.568E-13   0.545E-03 -.487E-02 0.196E-02   -.309E-02 -.163E-02 -.416E-02
   -.783E-01 -.813E-01 -.749E-01   0.996E-13 -.131E-13 0.169E-13   0.990E-02 0.116E-01 0.678E-02   0.736E-01 0.716E-01 0.727E-01
   0.890E-01 0.715E-01 0.890E-01   0.127E-12 0.134E-13 0.426E-13   -.175E-01 -.187E-02 -.177E-01   -.752E-01 -.710E-01 -.744E-01
 -----------------------------------------------------------------------------------------------
   0.921E-02 0.449E-03 0.107E-01   -.293E-13 0.280E-15 0.262E-14   -.792E-02 0.424E-03 -.989E-02   -.164E-02 0.597E-04 -.144E-02
 
 
 POSITION                                       TOTAL-FORCE (eV/Angst)
 -----------------------------------------------------------------------------------
      0.00000      0.00000      0.00000        -0.000687      0.000051     -0.000883
      4.17000      4.17000      4.17000        -0.000890     -0.000098     -0.001048
      2.08500      2.08500      2.08500         0.005217      0.001640      0.004758
      6.25500      6.25500      6.25500        -0.003640     -0.001593     -0.002827
 -----------------------------------------------------------------------------------
    total drift:                               -0.000347      0.000933     -0.000622


--------------------------------------------------------------------------------------------------------



  FREE ENERGIE OF THE ION-ELECTRON SYSTEM (eV)
  ---------------------------------------------------
  free  energy   TOTEN  =       -15.60581664 eV

  energy  without entropy=      -15.60581664  energy(sigma->0) =      -15.60581664
 


--------------------------------------------------------------------------------------------------------


    POTLOK:  cpu time    0.0216: real time    0.0216


--------------------------------------------------------------------------------------------------------


 writing wavefunctions
     LOOP+:  cpu time    5.8803: real time    5.8999
    4ORBIT:  cpu time    0.0000: real time    0.0000
 


 total charge     
 
# of ion       s       p       d       tot
------------------------------------------
    1        0.174   6.159   8.158  14.491
    2        0.174   6.159   8.163  14.496
    3        1.569   3.390   0.000   4.960
    4        1.569   3.390   0.000   4.960
--------------------------------------------------
tot          3.487  19.098  16.321  38.907
 


 magnetization (x)
 
# of ion       s       p       d       tot
------------------------------------------
    1       -0.000   0.000  -0.006  -0.006
    2        0.000  -0.000   0.006   0.006
    3       -0.007   0.247   0.000   0.240
    4        0.007  -0.247   0.000  -0.240
--------------------------------------------------
tot         -0.000  -0.000   0.000   0.000
 
 BZINTS: Fermi energy:  7.030532; 44.000000 electrons
         Band energy:-624.668662;  BLOECHL correction:  0.000000

 total amount of memory used by VASP MPI-rank0    35836. kBytes
=======================================================================

   base      :      30000. kBytes
   nonl-proj :       1932. kBytes
   fftplans  :        517. kBytes
   grid      :       2813. kBytes
   one-center:        124. kBytes
   wavefun   :        450. kBytes
 
  
  
 General timing and accounting informations for this job:
 ========================================================
  
                  Total CPU time used (sec):        6.894
                            User time (sec):        6.791
                          System time (sec):        0.103
                         Elapsed time (sec):        7.086
  
                   Maximum memory used (kb):       71784.
                   Average memory used (kb):           0.
  
                          Minor page faults:        17630
                          Major page faults:            0
                 Voluntary context switches:          787
