 vasp.5.4.4.18Apr17-6-g9f103f2a35 (build Jan 13 2019 14:20:48) complex          
  
 executed on             LinuxIFC date 2020.06.26  16:32:59
 running on   16 total cores
 distrk:  each k-point on   16 cores,    1 groups
 distr:  one band on NCORES_PER_BAND=   1 cores,   16 groups


--------------------------------------------------------------------------------------------------------


 INCAR:
 POTCAR:    PAW_PBE Ni_pv 06Sep2000               
 POTCAR:    PAW_PBE O 08Apr2002                   

 ----------------------------------------------------------------------------- 
|                                                                             |
|           W    W    AA    RRRRR   N    N  II  N    N   GGGG   !!!           |
|           W    W   A  A   R    R  NN   N  II  NN   N  G    G  !!!           |
|           W    W  A    A  R    R  N N  N  II  N N  N  G       !!!           |
|           W WW W  AAAAAA  RRRRR   N  N N  II  N  N N  G  GGG   !            |
|           WW  WW  A    A  R   R   N   NN  II  N   NN  G    G                |
|           W    W  A    A  R    R  N    N  II  N    N   GGGG   !!!           |
|                                                                             |
|      For optimal performance we recommend to set                            |
|        NCORE= 4 - approx SQRT( number of cores)                             |
|      NCORE specifies how many cores store one orbital (NPAR=cpu/NCORE).     |
|      This setting can  greatly improve the performance of VASP for DFT.     |
|      The default,   NCORE=1            might be grossly inefficient         |
|      on modern multi-core architectures or massively parallel machines.     |
|      Do your own testing !!!!                                               |
|      Unfortunately you need to use the default for GW and RPA calculations. |
|      (for HF NCORE is supported but not extensively tested yet)             |
|                                                                             |
 ----------------------------------------------------------------------------- 

 POTCAR:    PAW_PBE Ni_pv 06Sep2000               
   VRHFIN =Ni:                                                                  
   LEXCH  = PE                                                                  
   EATOM  =  3501.1230 eV,  257.3253 Ry                                         
                                                                                
   TITEL  = PAW_PBE Ni_pv 06Sep2000                                             
   LULTRA =        F    use ultrasoft PP ?                                      
   IUNSCR =        1    unscreen: 0-lin 1-nonlin 2-no                           
   RPACOR =    1.500    partial core radius                                     
   POMASS =   58.690; ZVAL   =   16.000    mass and valenz                      
   RCORE  =    2.000    outmost cutoff radius                                   
   RWIGS  =    2.000; RWIGS  =    1.058    wigner-seitz radius (au A)           
   ENMAX  =  367.986; ENMIN  =  275.989 eV                                      
   RCLOC  =    1.301    cutoff for local pot                                    
   LCOR   =        T    correct aug charges                                     
   LPAW   =        T    paw PP                                                  
   EAUG   =  703.443                                                            
   DEXC   =    0.000                                                            
   RMAX   =    2.041    core radius for proj-oper                               
   RAUG   =    1.300    factor for augmentation sphere                          
   RDEP   =    2.103    radius for radial grids                                 
   RDEPT  =    1.618    core radius for aug-charge                              
                                                                                
   Atomic configuration                                                         
    8 entries                                                                   
     n  l   j            E        occ.                                          
     1  0  0.50     -8206.4253   2.0000                                         
     2  0  0.50      -976.1748   2.0000                                         
     2  1  1.50      -839.0571   6.0000                                         
     3  0  0.50      -105.9991   2.0000                                         
     3  1  1.50       -66.4603   6.0000                                         
     3  2  2.50        -4.6458   9.0000                                         
     4  0  0.50        -4.4926   1.0000                                         
     4  3  2.50        -1.3606   0.0000                                         
   Description                                                                  
     l       E           TYP  RCUT    TYP  RCUT                                 
     1    -66.4602962     23  1.700                                             
     1     -1.3605826     23  1.700                                             
     2     -4.6457867     23  2.000                                             
     2     -6.0063693     23  2.000                                             
     0     -4.4925576     23  1.900                                             
     0     16.3626226     23  1.900                                             
  local pseudopotential read in
  partial core-charges read in
  partial kinetic energy density read in
  atomic valenz-charges read in
  non local Contribution for L=           1  read in
    real space projection operators read in
  non local Contribution for L=           1  read in
    real space projection operators read in
  non local Contribution for L=           2  read in
    real space projection operators read in
  non local Contribution for L=           2  read in
    real space projection operators read in
  non local Contribution for L=           0  read in
    real space projection operators read in
  non local Contribution for L=           0  read in
    real space projection operators read in
    PAW grid and wavefunctions read in
 
   number of l-projection  operators is LMAX  =           6
   number of lm-projection operators is LMMAX =          18
 
 POTCAR:    PAW_PBE O 08Apr2002                   
   VRHFIN =O: s2p4                                                              
   LEXCH  = PE                                                                  
   EATOM  =   432.3788 eV,   31.7789 Ry                                         
                                                                                
   TITEL  = PAW_PBE O 08Apr2002                                                 
   LULTRA =        F    use ultrasoft PP ?                                      
   IUNSCR =        1    unscreen: 0-lin 1-nonlin 2-no                           
   RPACOR =    1.200    partial core radius                                     
   POMASS =   16.000; ZVAL   =    6.000    mass and valenz                      
   RCORE  =    1.520    outmost cutoff radius                                   
   RWIGS  =    1.550; RWIGS  =    0.820    wigner-seitz radius (au A)           
   ENMAX  =  400.000; ENMIN  =  300.000 eV                                      
   ICORE  =        2    local potential                                         
   LCOR   =        T    correct aug charges                                     
   LPAW   =        T    paw PP                                                  
   EAUG   =  605.392                                                            
   DEXC   =    0.000                                                            
   RMAX   =    1.553    core radius for proj-oper                               
   RAUG   =    1.300    factor for augmentation sphere                          
   RDEP   =    1.550    radius for radial grids                                 
   RDEPT  =    1.329    core radius for aug-charge                              
                                                                                
   Atomic configuration                                                         
    4 entries                                                                   
     n  l   j            E        occ.                                          
     1  0  0.50      -514.6923   2.0000                                         
     2  0  0.50       -23.9615   2.0000                                         
     2  1  0.50        -9.0305   4.0000                                         
     3  2  1.50        -9.5241   0.0000                                         
   Description                                                                  
     l       E           TYP  RCUT    TYP  RCUT                                 
     0    -23.9615318     23  1.200                                             
     0     -9.5240782     23  1.200                                             
     1     -9.0304911     23  1.520                                             
     1      8.1634956     23  1.520                                             
     2     -9.5240782      7  1.500                                             
  local pseudopotential read in
  partial core-charges read in
  partial kinetic energy density read in
  kinetic energy density of atom read in
  atomic valenz-charges read in
  non local Contribution for L=           0  read in
    real space projection operators read in
  non local Contribution for L=           0  read in
    real space projection operators read in
  non local Contribution for L=           1  read in
    real space projection operators read in
  non local Contribution for L=           1  read in
    real space projection operators read in
    PAW grid and wavefunctions read in
 
   number of l-projection  operators is LMAX  =           4
   number of lm-projection operators is LMMAX =           8
 
  PAW_PBE Ni_pv 06Sep2000               :
 energy of atom  1       EATOM=-3501.1230
 kinetic energy error for atom=    0.0925 (will be added to EATOM!!)
  PAW_PBE O 08Apr2002                   :
 energy of atom  2       EATOM= -432.3788
 kinetic energy error for atom=    0.0389 (will be added to EATOM!!)
 
 
 POSCAR: NiO                                     
  positions in cartesian coordinates
  No initial velocities read in
 exchange correlation table for  LEXCH =        8
   RHO(1)=    0.500       N(1)  =     2000
   RHO(2)=  100.500       N(2)  =     4000
 


--------------------------------------------------------------------------------------------------------


 ion  position               nearest neighbor table
   1  0.000  0.000  0.000-   4 2.08   4 2.08   4 2.08   3 2.08   3 2.08   3 2.08
   2  0.500  0.500  0.500-   3 2.08   3 2.08   3 2.08   4 2.08   4 2.08   4 2.08
   3  0.250  0.250  0.250-   1 2.08   1 2.08   1 2.08   2 2.08   2 2.08   2 2.08
   4  0.750  0.750  0.750-   2 2.08   2 2.08   2 2.08   1 2.08   1 2.08   1 2.08
 

IMPORTANT INFORMATION: All symmetrisations will be switched off!
NOSYMM: (Re-)initialisation of all symmetry stuff for point group C_1.

 
 
 KPOINTS: k-points                                

Automatic generation of k-mesh.
Space group operators:
 irot       det(A)        alpha          n_x          n_y          n_z        tau_x        tau_y        tau_z
    1     1.000000     0.000000     1.000000     0.000000     0.000000     0.000000     0.000000     0.000000
 
 Subroutine IBZKPT returns following result:
 ===========================================
 
 Found      8 irreducible k-points:
 
 Following reciprocal coordinates:
            Coordinates               Weight
  0.000000  0.000000  0.000000      1.000000
  0.500000 -0.000000 -0.000000      1.000000
 -0.000000  0.500000 -0.000000      1.000000
  0.500000  0.500000  0.000000      1.000000
 -0.000000 -0.000000  0.500000      1.000000
  0.500000 -0.000000  0.500000      1.000000
 -0.000000  0.500000  0.500000      1.000000
  0.500000  0.500000  0.500000      1.000000
 
 Following cartesian coordinates:
            Coordinates               Weight
  0.000000  0.000000  0.000000      1.000000
  0.750000 -0.250000 -0.250000      1.000000
 -0.250000  0.750000 -0.250000      1.000000
  0.500000  0.500000 -0.500000      1.000000
 -0.250000 -0.250000  0.750000      1.000000
  0.500000 -0.500000  0.500000      1.000000
 -0.500000  0.500000  0.500000      1.000000
  0.250000  0.250000  0.250000      1.000000
 
 TETIRR: Found     24 inequivalent tetrahedra from       48


--------------------------------------------------------------------------------------------------------




 Dimension of arrays:
   k-points           NKPTS =      8   k-points in BZ     NKDIM =      8   number of bands    NBANDS=     64
   number of dos      NEDOS =    301   number of ions     NIONS =      4
   non local maximal  LDIM  =      6   non local SUM 2l+1 LMDIM =     18
   total plane-waves  NPLWV =  21952
   max r-space proj   IRMAX =      1   max aug-charges    IRDMAX=  13566
   dimension x,y,z NGX =    28 NGY =   28 NGZ =   28
   dimension x,y,z NGXF=    56 NGYF=   56 NGZF=   56
   support grid    NGXF=    56 NGYF=   56 NGZF=   56
   ions per type =               2   2
   NGX,Y,Z   is equivalent  to a cutoff of   9.11,  9.11,  9.11 a.u.
   NGXF,Y,Z  is equivalent  to a cutoff of  18.23, 18.23, 18.23 a.u.

 SYSTEM =  "NiO"                                   
 POSCAR =  NiO                                     

 Startparameter for this run:
   NWRITE =      2    write-flag & timer
   PREC   = normal    normal or accurate (medium, high low for compatibility)
   ISTART =      0    job   : 0-new  1-cont  2-samecut
   ICHARG =      2    charge: 1-file 2-atom 10-const
   ISPIN  =      1    spin polarized calculation?
   LNONCOLLINEAR =      T non collinear calculations
   LSORBIT =      T    spin-orbit coupling
   INIWAV =      1    electr: 0-lowe 1-rand  2-diag
   LASPH  =      F    aspherical Exc in radial PAW
   METAGGA=      F    non-selfconsistent MetaGGA calc.

 Electronic Relaxation 1
   ENCUT  =  450.0 eV  33.07 Ry    5.75 a.u.   8.83  8.83  8.83*2*pi/ulx,y,z
   ENINI  =  450.0     initial cutoff
   ENAUG  =  703.4 eV  augmentation charge cutoff
   NELM   =     60;   NELMIN=  6; NELMDL= -5     # of ELM steps 
   EDIFF  = 0.1E-04   stopping-criterion for ELM
   LREAL  =      F    real-space projection
   NLSPLINE    = F    spline interpolate recip. space projectors
   LCOMPAT=      F    compatible to vasp.4.4
   GGA_COMPAT  = T    GGA compatible to vasp.4.4-vasp.4.6
   LMAXPAW     = -100 max onsite density
   LMAXMIX     =    4 max onsite mixed and CHGCAR
   VOSKOWN=      0    Vosko Wilk Nusair interpolation
   ROPT   =    0.00000   0.00000
 Ionic relaxation
   EDIFFG = 0.1E-03   stopping-criterion for IOM
   NSW    =      0    number of steps for IOM
   NBLOCK =      1;   KBLOCK =      1    inner block; outer block 
   IBRION =     -1    ionic relax: 0-MD 1-quasi-New 2-CG
   NFREE  =      0    steps in history (QN), initial steepest desc. (CG)
   ISIF   =      2    stress and relaxation
   IWAVPR =     10    prediction:  0-non 1-charg 2-wave 3-comb
   ISYM   =     -1    0-nonsym 1-usesym 2-fastsym
   LCORR  =      T    Harris-Foulkes like correction to forces

   POTIM  = 0.5000    time-step for ionic-motion
   TEIN   =    0.0    initial temperature
   TEBEG  =    0.0;   TEEND  =   0.0 temperature during run
   SMASS  =  -3.00    Nose mass-parameter (am)
   estimated Nose-frequenzy (Omega)   =  0.10E-29 period in steps =****** mass=  -0.596E-27a.u.
   SCALEE = 1.0000    scale energy and forces
   NPACO  =    256;   APACO  = 16.0  distance and # of slots for P.C.
   PSTRESS=    0.0 pullay stress

  Mass of Ions in am
   POMASS =  58.69 16.00
  Ionic Valenz
   ZVAL   =  16.00  6.00
  Atomic Wigner-Seitz radii
   RWIGS  =  -1.00 -1.00
  virtual crystal weights 
   VCA    =   1.00  1.00
   NELECT =      44.0000    total number of electrons
   NUPDOWN=      -1.0000    fix difference up-down

 DOS related values:
   EMIN   =  10.00;   EMAX   =-10.00  energy-range for DOS
   EFERMI =   0.00
   ISMEAR =    -5;   SIGMA  =   0.20  broadening in eV -4-tet -1-fermi 0-gaus

 Electronic relaxation 2 (details)
   IALGO  =     38    algorithm
   LDIAG  =      T    sub-space diagonalisation (order eigenvalues)
   LSUBROT=      F    optimize rotation matrix (better conditioning)
   TURBO    =      0    0=normal 1=particle mesh
   IRESTART =      0    0=no restart 2=restart with 2 vectors
   NREBOOT  =      0    no. of reboots
   NMIN     =      0    reboot dimension
   EREF     =   0.00    reference energy to select bands
   IMIX   =      4    mixing-type and parameters
     AMIX     =   0.20;   BMIX     =  0.00
     AMIX_MAG =   0.80;   BMIX_MAG =  0.00
     AMIN     =   0.10
     WC   =   100.;   INIMIX=   1;  MIXPRE=   1;  MAXMIX= -45

 Intra band minimization:
   WEIMIN = 0.0000     energy-eigenvalue tresh-hold
   EBREAK =  0.39E-07  absolut break condition
   DEPER  =   0.30     relativ break condition  

   TIME   =   0.40     timestep for ELM

  volume/ion in A,a.u.               =       9.06        61.17
  Fermi-wavevector in a.u.,A,eV,Ry     =   1.746223  3.299883 41.488167  3.049294
  Thomas-Fermi vector in A             =   2.817758
 
 Write flags
   LWAVE        =      T    write WAVECAR
   LDOWNSAMPLE  =      F    k-point downsampling of WAVECAR
   LCHARG       =      F    write CHGCAR
   LVTOT        =      F    write LOCPOT, total local potential
   LVHAR        =      F    write LOCPOT, Hartree potential only
   LELF         =      F    write electronic localiz. function (ELF)
   LORBIT       =     11    0 simple, 1 ext, 2 COOP (PROOUT), +10 PAW based schemes


 Dipole corrections
   LMONO  =      F    monopole corrections only (constant potential shift)
   LDIPOL =      F    correct potential (dipole corrections)
   IDIPOL =      0    1-x, 2-y, 3-z, 4-all directions 
   EPSILON=  1.0000000 bulk dielectric constant

 LDA+U is selected, type is set to LDAUTYPE =  2
   angular momentum for each species LDAUL =     2   -1
   U (eV)           for each species LDAUU =   5.0  0.0
   J (eV)           for each species LDAUJ =   0.0  0.0
 Exchange correlation treatment:
   GGA     =    --    GGA type
   LEXCH   =     8    internal setting for exchange type
   VOSKOWN=      0    Vosko Wilk Nusair interpolation
   LHFCALC =     F    Hartree Fock is set to
   LHFONE  =     F    Hartree Fock one center treatment
   AEXX    =    0.0000 exact exchange contribution

 Linear response parameters
   LEPSILON=     F    determine dielectric tensor
   LRPA    =     F    only Hartree local field effects (RPA)
   LNABLA  =     F    use nabla operator in PAW spheres
   LVEL    =     F    velocity operator in full k-point grid
   LINTERFAST=   F  fast interpolation
   KINTER  =     0    interpolate to denser k-point grid
   CSHIFT  =0.1000    complex shift for real part using Kramers Kronig
   OMEGAMAX=  -1.0    maximum frequency
   DEG_THRESHOLD= 0.2000000E-02 threshold for treating states as degnerate
   RTIME   =   -0.100 relaxation time in fs
  (WPLASMAI=    0.000 imaginary part of plasma frequency in eV, 0.658/RTIME)
   DFIELD  = 0.0000000 0.0000000 0.0000000 field for delta impulse in time
 
 Orbital magnetization related:
   ORBITALMAG=     F  switch on orbital magnetization
   LCHIMAG   =     F  perturbation theory with respect to B field
   DQ        =  0.001000  dq finite difference perturbation B field
   LLRAUG    =     F  two centre corrections for induced B field



--------------------------------------------------------------------------------------------------------


 Static calculation
 charge density and potential will be updated during run
 non collinear spin polarized calculation
 Variant of blocked Davidson
 Davidson routine will perform the subspace rotation
 perform sub-space diagonalisation
    after iterative eigenvector-optimisation
 modified Broyden-mixing scheme, WC =      100.0
 initial mixing is a Kerker type mixing with AMIX =  0.2000 and BMIX =      0.0000
 Hartree-type preconditioning will be used
 using additional bands           42
 reciprocal scheme for non local part
 use partial core corrections
 calculate Harris-corrections to forces 
   (improved forces if not selfconsistent)
 use gradient corrections 
 use of overlap-Matrix (Vanderbilt PP)
 Fermi weights with tetrahedron method with Bloechl corrections


--------------------------------------------------------------------------------------------------------


  energy-cutoff  :      450.00
  volume of cell :       36.26
      direct lattice vectors                 reciprocal lattice vectors
     4.170000000  2.085000000  2.085000000     0.359712230 -0.119904077 -0.119904077
     2.085000000  4.170000000  2.085000000    -0.119904077  0.359712230 -0.119904077
     2.085000000  2.085000000  4.170000000    -0.119904077 -0.119904077  0.359712230

  length of vectors
     5.107186114  5.107186114  5.107186114     0.397676833  0.397676833  0.397676833


 
 k-points in units of 2pi/SCALE and weight: k-points                                
   0.00000000  0.00000000  0.00000000       0.125
   0.75000000 -0.25000000 -0.25000000       0.125
  -0.25000000  0.75000000 -0.25000000       0.125
   0.50000000  0.50000000 -0.50000000       0.125
  -0.25000000 -0.25000000  0.75000000       0.125
   0.50000000 -0.50000000  0.50000000       0.125
  -0.50000000  0.50000000  0.50000000       0.125
   0.25000000  0.25000000  0.25000000       0.125
 
 k-points in reciprocal lattice and weights: k-points                                
   0.00000000  0.00000000  0.00000000       0.125
   0.50000000 -0.00000000 -0.00000000       0.125
  -0.00000000  0.50000000 -0.00000000       0.125
   0.50000000  0.50000000  0.00000000       0.125
  -0.00000000 -0.00000000  0.50000000       0.125
   0.50000000 -0.00000000  0.50000000       0.125
  -0.00000000  0.50000000  0.50000000       0.125
   0.50000000  0.50000000  0.50000000       0.125
 
 position of ions in fractional coordinates (direct lattice) 
   0.00000000  0.00000000  0.00000000
   0.50000000  0.50000000  0.50000000
   0.25000000  0.25000000  0.25000000
   0.75000000  0.75000000  0.75000000
 
 position of ions in cartesian coordinates  (Angst):
   0.00000000  0.00000000  0.00000000
   4.17000000  4.17000000  4.17000000
   2.08500000  2.08500000  2.08500000
   6.25500000  6.25500000  6.25500000
 
 Euler angles ALPHA=     0.7853982  BETA=     0.9553166

 transformation matrix from SAXIS to cartesian coordinates
 ---------------------------------------------------------
     0.4082483 m_x    -0.7071068 m_y     0.5773503 m_z
     0.4082483 m_x     0.7071068 m_y     0.5773503 m_z
    -0.8164966 m_x     0.0000000 m_y     0.5773503 m_z

 transformation matrix from cartesian coordinates to SAXIS
 ---------------------------------------------------------
     0.4082483 m_x     0.4082483 m_y    -0.8164966 m_z
    -0.7071068 m_x     0.7071068 m_y     0.0000000 m_z
     0.5773503 m_x     0.5773503 m_y     0.5773503 m_z




--------------------------------------------------------------------------------------------------------


 k-point  1 :   0.0000 0.0000 0.0000  plane waves:    1606
 k-point  2 :   0.5000-0.0000-0.0000  plane waves:    1580
 k-point  3 :  -0.0000 0.5000-0.0000  plane waves:    1580
 k-point  4 :   0.5000 0.5000 0.0000  plane waves:    1560
 k-point  5 :  -0.0000-0.0000 0.5000  plane waves:    1580
 k-point  6 :   0.5000-0.0000 0.5000  plane waves:    1560
 k-point  7 :  -0.0000 0.5000 0.5000  plane waves:    1560
 k-point  8 :   0.5000 0.5000 0.5000  plane waves:    1544

 maximum and minimum number of plane-waves per node :      1606     1544

 maximum number of plane-waves:      1606
 maximum index in each direction: 
   IXMAX=    8   IYMAX=    8   IZMAX=    8
   IXMIN=   -9   IYMIN=   -9   IZMIN=   -9


 serial   3D FFT for wavefunctions
 parallel 3D FFT for charge:
    minimum data exchange during FFTs selected (reduces bandwidth)


 total amount of memory used by VASP MPI-rank0    39886. kBytes
=======================================================================

   base      :      30000. kBytes
   nonl-proj :       1932. kBytes
   fftplans  :        985. kBytes
   grid      :       5820. kBytes
   one-center:        248. kBytes
   wavefun   :        901. kBytes
 
     INWAV:  cpu time    0.0000: real time    0.0001
 Broyden mixing: mesh for mixing (old mesh)
   NGX = 17   NGY = 17   NGZ = 17
  (NGX  = 56   NGY  = 56   NGZ  = 56)
  gives a total of   4913 points

 initial charge density was supplied:
 charge density of overlapping atoms calculated
 number of electron      44.0000000 magnetization       0.0000000      0.0000000      0.0000000
 keeping initial charge density in first step


--------------------------------------------------------------------------------------------------------


 Maximum index for augmentation-charges         1073 (set IRDMAX)


--------------------------------------------------------------------------------------------------------


 First call to EWALD:  gamma=   0.536
 Maximum number of real-space cells 3x 3x 3
 Maximum number of reciprocal cells 4x 4x 4

    FEWALD:  cpu time    0.0019: real time    0.0019


--------------------------------------- Iteration      1(   1)  ---------------------------------------


    POTLOK:  cpu time    0.0350: real time    0.0361
    SETDIJ:  cpu time    0.0094: real time    0.0094
atom =   1  type =  1  l = 2
 
 onsite density matrix
 
spin component  1
 
  0.9237  0.0000  0.0000  0.0000  0.0000      0.0000  0.0000  0.0000  0.0000  0.0000
  0.0000  0.9237  0.0000  0.0000  0.0000      0.0000  0.0000  0.0000  0.0000  0.0000
  0.0000  0.0000  0.9237  0.0000  0.0000      0.0000  0.0000  0.0000  0.0000  0.0000
  0.0000  0.0000  0.0000  0.9237  0.0000      0.0000  0.0000  0.0000  0.0000  0.0000
  0.0000  0.0000  0.0000  0.0000  0.9237      0.0000  0.0000  0.0000  0.0000  0.0000
 
spin component  2
 
  0.0000  0.0000  0.0000  0.0000  0.0000      0.0000  0.0000  0.0000  0.0000  0.0000
  0.0000  0.0000  0.0000  0.0000  0.0000      0.0000  0.0000  0.0000  0.0000  0.0000
  0.0000  0.0000  0.0000  0.0000  0.0000      0.0000  0.0000  0.0000  0.0000  0.0000
  0.0000  0.0000  0.0000  0.0000  0.0000      0.0000  0.0000  0.0000  0.0000  0.0000
  0.0000  0.0000  0.0000  0.0000  0.0000      0.0000  0.0000  0.0000  0.0000  0.0000
 
spin component  3
 
  0.0000  0.0000  0.0000  0.0000  0.0000      0.0000  0.0000  0.0000  0.0000  0.0000
  0.0000  0.0000  0.0000  0.0000  0.0000      0.0000  0.0000  0.0000  0.0000  0.0000
  0.0000  0.0000  0.0000  0.0000  0.0000      0.0000  0.0000  0.0000  0.0000  0.0000
  0.0000  0.0000  0.0000  0.0000  0.0000      0.0000  0.0000  0.0000  0.0000  0.0000
  0.0000  0.0000  0.0000  0.0000  0.0000      0.0000  0.0000  0.0000  0.0000  0.0000
 
spin component  4
 
  0.7184  0.0000  0.0000  0.0000  0.0000      0.0000  0.0000  0.0000  0.0000  0.0000
  0.0000  0.7184  0.0000  0.0000  0.0000      0.0000  0.0000  0.0000  0.0000  0.0000
  0.0000  0.0000  0.7184  0.0000  0.0000      0.0000  0.0000  0.0000  0.0000  0.0000
  0.0000  0.0000  0.0000  0.7184  0.0000      0.0000  0.0000  0.0000  0.0000  0.0000
  0.0000  0.0000  0.0000  0.0000  0.7184      0.0000  0.0000  0.0000  0.0000  0.0000
 
 occupancies and eigenvectors
 
  o =  0.7184  v =  0.0000  0.0000  0.0000  0.0000  0.0000  1.0000  0.0000  0.0000  0.0000  0.0000      0.0000  0.0000  0.0000  0.0000  0.0000  0.0000  0.0000  0.0000  0.0000  0.0000
  o =  0.7184  v =  0.0000  0.0000  0.0000  0.0000  0.0000  0.0000  1.0000  0.0000  0.0000  0.0000      0.0000  0.0000  0.0000  0.0000  0.0000  0.0000  0.0000  0.0000  0.0000  0.0000
  o =  0.7184  v =  0.0000  0.0000  0.0000  0.0000  0.0000  0.0000  0.0000  1.0000  0.0000  0.0000      0.0000  0.0000  0.0000  0.0000  0.0000  0.0000  0.0000  0.0000  0.0000  0.0000
  o =  0.7184  v =  0.0000  0.0000  0.0000  0.0000  0.0000  0.0000  0.0000  0.0000  1.0000  0.0000      0.0000  0.0000  0.0000  0.0000  0.0000  0.0000  0.0000  0.0000  0.0000  0.0000
  o =  0.7184  v =  0.0000  0.0000  0.0000  0.0000  0.0000  0.0000  0.0000  0.0000  0.0000  1.0000      0.0000  0.0000  0.0000  0.0000  0.0000  0.0000  0.0000  0.0000  0.0000  0.0000
  o =  0.9237  v =  1.0000  0.0000  0.0000  0.0000  0.0000  0.0000  0.0000  0.0000  0.0000  0.0000      0.0000  0.0000  0.0000  0.0000  0.0000  0.0000  0.0000  0.0000  0.0000  0.0000
  o =  0.9237  v =  0.0000  1.0000  0.0000  0.0000  0.0000  0.0000  0.0000  0.0000  0.0000  0.0000      0.0000  0.0000  0.0000  0.0000  0.0000  0.0000  0.0000  0.0000  0.0000  0.0000
  o =  0.9237  v =  0.0000  0.0000  1.0000  0.0000  0.0000  0.0000  0.0000  0.0000  0.0000  0.0000      0.0000  0.0000  0.0000  0.0000  0.0000  0.0000  0.0000  0.0000  0.0000  0.0000
  o =  0.9237  v =  0.0000  0.0000  0.0000  1.0000  0.0000  0.0000  0.0000  0.0000  0.0000  0.0000      0.0000  0.0000  0.0000  0.0000  0.0000  0.0000  0.0000  0.0000  0.0000  0.0000
  o =  0.9237  v =  0.0000  0.0000  0.0000  0.0000  1.0000  0.0000  0.0000  0.0000  0.0000  0.0000      0.0000  0.0000  0.0000  0.0000  0.0000  0.0000  0.0000  0.0000  0.0000  0.0000
atom =   2  type =  1  l = 2
 
 onsite density matrix
 
spin component  1
 
  0.7184  0.0000  0.0000  0.0000  0.0000      0.0000  0.0000  0.0000  0.0000  0.0000
  0.0000  0.7184  0.0000  0.0000  0.0000      0.0000  0.0000  0.0000  0.0000  0.0000
  0.0000  0.0000  0.7184  0.0000  0.0000      0.0000  0.0000  0.0000  0.0000  0.0000
  0.0000  0.0000  0.0000  0.7184  0.0000      0.0000  0.0000  0.0000  0.0000  0.0000
  0.0000  0.0000  0.0000  0.0000  0.7184      0.0000  0.0000  0.0000  0.0000  0.0000
 
spin component  2
 
  0.0000  0.0000  0.0000  0.0000  0.0000      0.0000  0.0000  0.0000  0.0000  0.0000
  0.0000  0.0000  0.0000  0.0000  0.0000      0.0000  0.0000  0.0000  0.0000  0.0000
  0.0000  0.0000  0.0000  0.0000  0.0000      0.0000  0.0000  0.0000  0.0000  0.0000
  0.0000  0.0000  0.0000  0.0000  0.0000      0.0000  0.0000  0.0000  0.0000  0.0000
  0.0000  0.0000  0.0000  0.0000  0.0000      0.0000  0.0000  0.0000  0.0000  0.0000
 
spin component  3
 
  0.0000  0.0000  0.0000  0.0000  0.0000      0.0000  0.0000  0.0000  0.0000  0.0000
  0.0000  0.0000  0.0000  0.0000  0.0000      0.0000  0.0000  0.0000  0.0000  0.0000
  0.0000  0.0000  0.0000  0.0000  0.0000      0.0000  0.0000  0.0000  0.0000  0.0000
  0.0000  0.0000  0.0000  0.0000  0.0000      0.0000  0.0000  0.0000  0.0000  0.0000
  0.0000  0.0000  0.0000  0.0000  0.0000      0.0000  0.0000  0.0000  0.0000  0.0000
 
spin component  4
 
  0.9237  0.0000  0.0000  0.0000  0.0000      0.0000  0.0000  0.0000  0.0000  0.0000
  0.0000  0.9237  0.0000  0.0000  0.0000      0.0000  0.0000  0.0000  0.0000  0.0000
  0.0000  0.0000  0.9237  0.0000  0.0000      0.0000  0.0000  0.0000  0.0000  0.0000
  0.0000  0.0000  0.0000  0.9237  0.0000      0.0000  0.0000  0.0000  0.0000  0.0000
  0.0000  0.0000  0.0000  0.0000  0.9237      0.0000  0.0000  0.0000  0.0000  0.0000
 
 occupancies and eigenvectors
 
  o =  0.7184  v =  1.0000  0.0000  0.0000  0.0000  0.0000  0.0000  0.0000  0.0000  0.0000  0.0000      0.0000  0.0000  0.0000  0.0000  0.0000  0.0000  0.0000  0.0000  0.0000  0.0000
  o =  0.7184  v =  0.0000  1.0000  0.0000  0.0000  0.0000  0.0000  0.0000  0.0000  0.0000  0.0000      0.0000  0.0000  0.0000  0.0000  0.0000  0.0000  0.0000  0.0000  0.0000  0.0000
  o =  0.7184  v =  0.0000  0.0000  1.0000  0.0000  0.0000  0.0000  0.0000  0.0000  0.0000  0.0000      0.0000  0.0000  0.0000  0.0000  0.0000  0.0000  0.0000  0.0000  0.0000  0.0000
  o =  0.7184  v =  0.0000  0.0000  0.0000  1.0000  0.0000  0.0000  0.0000  0.0000  0.0000  0.0000      0.0000  0.0000  0.0000  0.0000  0.0000  0.0000  0.0000  0.0000  0.0000  0.0000
  o =  0.7184  v =  0.0000  0.0000  0.0000  0.0000  1.0000  0.0000  0.0000  0.0000  0.0000  0.0000      0.0000  0.0000  0.0000  0.0000  0.0000  0.0000  0.0000  0.0000  0.0000  0.0000
  o =  0.9237  v =  0.0000  0.0000  0.0000  0.0000  0.0000  1.0000  0.0000  0.0000  0.0000  0.0000      0.0000  0.0000  0.0000  0.0000  0.0000  0.0000  0.0000  0.0000  0.0000  0.0000
  o =  0.9237  v =  0.0000  0.0000  0.0000  0.0000  0.0000  0.0000  1.0000  0.0000  0.0000  0.0000      0.0000  0.0000  0.0000  0.0000  0.0000  0.0000  0.0000  0.0000  0.0000  0.0000
  o =  0.9237  v =  0.0000  0.0000  0.0000  0.0000  0.0000  0.0000  0.0000  1.0000  0.0000  0.0000      0.0000  0.0000  0.0000  0.0000  0.0000  0.0000  0.0000  0.0000  0.0000  0.0000
  o =  0.9237  v =  0.0000  0.0000  0.0000  0.0000  0.0000  0.0000  0.0000  0.0000  1.0000  0.0000      0.0000  0.0000  0.0000  0.0000  0.0000  0.0000  0.0000  0.0000  0.0000  0.0000
  o =  0.9237  v =  0.0000  0.0000  0.0000  0.0000  0.0000  0.0000  0.0000  0.0000  0.0000  1.0000      0.0000  0.0000  0.0000  0.0000  0.0000  0.0000  0.0000  0.0000  0.0000  0.0000
     EDDAV:  cpu time    0.3648: real time    0.3648
 BZINTS: Fermi energy: 22.706379; 44.000000 electrons
         Band energy: -76.438739;  BLOECHL correction: -0.083511
       DOS:  cpu time    0.0021: real time    0.0021
    --------------------------------------------
      LOOP:  cpu time    0.4113: real time    0.4124

 eigenvalue-minimisations  :  1088
 total energy-change (2. order) : 0.5103378E+03  (-0.2636097E+04)
 number of electron      44.0000000 magnetization       0.0000000      0.0000000      0.0000000
 augmentation part       44.0000000 magnetization       0.0000000      0.0000000      0.0000000

 Free energy of the ion-electron system (eV)
  ---------------------------------------------------
  alpha Z        PSCENC =       311.81991378
  Ewald energy   TEWEN  =     -5345.56183988
  -Hartree energ DENC   =     -2231.97249407
  -exchange      EXHF   =         0.00000000
  -V(xc)+E(xc)   XCENC  =       234.32224669
  PAW double counting   =      6520.12304331    -6768.69497847
  entropy T*S    EENTRO =         0.00000000
  eigenvalues    EBANDS =       -76.43873877
  atomic energy  EATOM  =      7866.74061565
  Solvation  Ediel_sol  =         0.00000000
  ---------------------------------------------------
  free energy    TOTEN  =       510.33776824 eV

  energy without entropy =      510.33776824  energy(sigma->0) =      510.33776824


--------------------------------------------------------------------------------------------------------




--------------------------------------- Iteration      1(   2)  ---------------------------------------


     EDDAV:  cpu time    0.3796: real time    0.3799
 BZINTS: Fermi energy:  9.043564; 44.000000 electrons
         Band energy:-577.066842;  BLOECHL correction: -0.007499
       DOS:  cpu time    0.0018: real time    0.0018
    --------------------------------------------
      LOOP:  cpu time    0.3814: real time    0.3817

 eigenvalue-minimisations  :  1152
 total energy-change (2. order) :-0.5006281E+03  (-0.4780467E+03)
 number of electron      44.0000000 magnetization       0.0000000      0.0000000      0.0000000
 augmentation part       44.0000000 magnetization       0.0000000      0.0000000      0.0000000

 Free energy of the ion-electron system (eV)
  ---------------------------------------------------
  alpha Z        PSCENC =       311.81991378
  Ewald energy   TEWEN  =     -5345.56183988
  -Hartree energ DENC   =     -2231.97249407
  -exchange      EXHF   =         0.00000000
  -V(xc)+E(xc)   XCENC  =       234.32224669
  PAW double counting   =      6520.12304331    -6768.69497847
  entropy T*S    EENTRO =         0.00000000
  eigenvalues    EBANDS =      -577.06684164
  atomic energy  EATOM  =      7866.74061565
  Solvation  Ediel_sol  =         0.00000000
  ---------------------------------------------------
  free energy    TOTEN  =         9.70966537 eV

  energy without entropy =        9.70966537  energy(sigma->0) =        9.70966537


--------------------------------------------------------------------------------------------------------




--------------------------------------- Iteration      1(   3)  ---------------------------------------


     EDDAV:  cpu time    0.3851: real time    0.3852
 BZINTS: Fermi energy:  8.192740; 44.000000 electrons
         Band energy:-605.679198;  BLOECHL correction:  0.000000
       DOS:  cpu time    0.0005: real time    0.0005
    --------------------------------------------
      LOOP:  cpu time    0.3856: real time    0.3857

 eigenvalue-minimisations  :  1168
 total energy-change (2. order) :-0.2861236E+02  (-0.2827515E+02)
 number of electron      44.0000000 magnetization       0.0000000      0.0000000      0.0000000
 augmentation part       44.0000000 magnetization       0.0000000      0.0000000      0.0000000

 Free energy of the ion-electron system (eV)
  ---------------------------------------------------
  alpha Z        PSCENC =       311.81991378
  Ewald energy   TEWEN  =     -5345.56183988
  -Hartree energ DENC   =     -2231.97249407
  -exchange      EXHF   =         0.00000000
  -V(xc)+E(xc)   XCENC  =       234.32224669
  PAW double counting   =      6520.12304331    -6768.69497847
  entropy T*S    EENTRO =         0.00000000
  eigenvalues    EBANDS =      -605.67919839
  atomic energy  EATOM  =      7866.74061565
  Solvation  Ediel_sol  =         0.00000000
  ---------------------------------------------------
  free energy    TOTEN  =       -18.90269138 eV

  energy without entropy =      -18.90269138  energy(sigma->0) =      -18.90269138


--------------------------------------------------------------------------------------------------------




--------------------------------------- Iteration      1(   4)  ---------------------------------------


     EDDAV:  cpu time    0.3752: real time    0.3753
 BZINTS: Fermi energy:  8.186452; 44.000000 electrons
         Band energy:-606.040843;  BLOECHL correction:  0.000000
       DOS:  cpu time    0.0006: real time    0.0006
    --------------------------------------------
      LOOP:  cpu time    0.3759: real time    0.3760

 eigenvalue-minimisations  :  1136
 total energy-change (2. order) :-0.3616442E+00  (-0.3615408E+00)
 number of electron      44.0000000 magnetization       0.0000000      0.0000000      0.0000000
 augmentation part       44.0000000 magnetization       0.0000000      0.0000000      0.0000000

 Free energy of the ion-electron system (eV)
  ---------------------------------------------------
  alpha Z        PSCENC =       311.81991378
  Ewald energy   TEWEN  =     -5345.56183988
  -Hartree energ DENC   =     -2231.97249407
  -exchange      EXHF   =         0.00000000
  -V(xc)+E(xc)   XCENC  =       234.32224669
  PAW double counting   =      6520.12304331    -6768.69497847
  entropy T*S    EENTRO =         0.00000000
  eigenvalues    EBANDS =      -606.04084256
  atomic energy  EATOM  =      7866.74061565
  Solvation  Ediel_sol  =         0.00000000
  ---------------------------------------------------
  free energy    TOTEN  =       -19.26433555 eV

  energy without entropy =      -19.26433555  energy(sigma->0) =      -19.26433555


--------------------------------------------------------------------------------------------------------




--------------------------------------- Iteration      1(   5)  ---------------------------------------


     EDDAV:  cpu time    0.3740: real time    0.3741
 BZINTS: Fermi energy:  8.178079; 44.000000 electrons
         Band energy:-606.047215;  BLOECHL correction:  0.000000
       DOS:  cpu time    0.0006: real time    0.0006
 


 total charge     
 
# of ion       s       p       d       tot
------------------------------------------
    1        0.134   6.125   7.689  13.948
    2        0.134   6.125   7.689  13.948
    3        1.601   3.960   0.000   5.560
    4        1.601   3.960   0.000   5.560
--------------------------------------------------
tot          3.469  20.169  15.378  39.016
 


 magnetization (x)
 
# of ion       s       p       d       tot
------------------------------------------
    1       -0.000  -0.000   0.000  -0.000
    2       -0.000   0.000   0.000  -0.000
    3        0.000   0.000   0.000   0.000
    4       -0.000   0.000   0.000  -0.000
--------------------------------------------------
tot         -0.000   0.000   0.000  -0.000
 


 magnetization (y)
 
# of ion       s       p       d       tot
------------------------------------------
    1        0.000   0.000  -0.000   0.000
    2        0.000   0.000  -0.000   0.000
    3        0.000  -0.000   0.000   0.000
    4       -0.000   0.000   0.000  -0.000
--------------------------------------------------
tot          0.000   0.000  -0.000   0.000
 


 magnetization (z)
 
# of ion       s       p       d       tot
------------------------------------------
    1        0.006   0.000   1.690   1.696
    2       -0.006  -0.000  -1.690  -1.696
    3       -0.000   0.000   0.000   0.000
    4        0.000  -0.000   0.000  -0.000
--------------------------------------------------
tot         -0.000   0.000   0.000  -0.000
 
    CHARGE:  cpu time    0.0282: real time    0.0282
    MIXING:  cpu time    0.0011: real time    0.0012
    --------------------------------------------
      LOOP:  cpu time    0.4040: real time    0.4041

 eigenvalue-minimisations  :  1136
 total energy-change (2. order) :-0.6372027E-02  (-0.6371953E-02)
 number of electron      44.0000077 magnetization       0.0000003     -0.0000002     -0.0000000
 augmentation part       19.8995358 magnetization       0.0000153     -0.0000230      0.0000326

 Broyden mixing:
  rms(total) = 0.20813E+01    rms(broyden)= 0.20671E+01
  rms(prec ) = 0.32474E+01
  weight for this iteration     100.00

 Free energy of the ion-electron system (eV)
  ---------------------------------------------------
  alpha Z        PSCENC =       311.81991378
  Ewald energy   TEWEN  =     -5345.56183988
  -Hartree energ DENC   =     -2231.97249407
  -exchange      EXHF   =         0.00000000
  -V(xc)+E(xc)   XCENC  =       234.32224669
  PAW double counting   =      6520.12304331    -6768.69497847
  entropy T*S    EENTRO =         0.00000000
  eigenvalues    EBANDS =      -606.04721459
  atomic energy  EATOM  =      7866.74061565
  Solvation  Ediel_sol  =         0.00000000
  ---------------------------------------------------
  free energy    TOTEN  =       -19.27070757 eV

  energy without entropy =      -19.27070757  energy(sigma->0) =      -19.27070757


--------------------------------------------------------------------------------------------------------




--------------------------------------- Iteration      1(   6)  ---------------------------------------


    POTLOK:  cpu time    0.0308: real time    0.0309
    SETDIJ:  cpu time    0.0104: real time    0.0104
atom =   1  type =  1  l = 2
 
 onsite density matrix
 
spin component  1
 
  0.8749  0.0004 -0.0043  0.0004 -0.0000      0.0000 -0.0001 -0.0000  0.0001  0.0131
  0.0004  0.8749  0.0021  0.0004 -0.0037      0.0001  0.0000 -0.0114 -0.0001 -0.0066
 -0.0043  0.0021  1.1054  0.0022 -0.0000      0.0000  0.0114  0.0000 -0.0114  0.0021
  0.0004  0.0004  0.0022  0.8749  0.0037     -0.0001  0.0001  0.0114 -0.0000 -0.0066
 -0.0000 -0.0037 -0.0000  0.0037  1.1054     -0.0131  0.0066 -0.0021  0.0066  0.0000
 
spin component  2
 
 -0.0007  0.0002 -0.0000  0.0002  0.0000      0.0000 -0.0002  0.0000  0.0002 -0.0020
  0.0001  0.0003  0.0015 -0.0003  0.0009     -0.0003  0.0006 -0.0009 -0.0001 -0.0005
  0.0000 -0.0098  0.0008 -0.0098  0.0000     -0.0000  0.0057 -0.0000 -0.0057  0.0008
  0.0001 -0.0003  0.0015  0.0003 -0.0009      0.0003  0.0001  0.0009 -0.0006 -0.0005
 -0.0000 -0.0057 -0.0000  0.0057 -0.0008      0.0131  0.0032  0.0008  0.0032  0.0000
 
spin component  3
 
 -0.0007  0.0001  0.0000  0.0001 -0.0000     -0.0000  0.0003  0.0000 -0.0003 -0.0131
  0.0002  0.0003 -0.0098 -0.0003 -0.0057      0.0002 -0.0006 -0.0057 -0.0001 -0.0032
 -0.0000  0.0015  0.0008  0.0015 -0.0000     -0.0000  0.0009  0.0000 -0.0009 -0.0008
  0.0002 -0.0003 -0.0098  0.0003  0.0057     -0.0002  0.0001  0.0057  0.0006 -0.0032
  0.0000  0.0009  0.0000 -0.0009 -0.0008      0.0020  0.0005 -0.0008  0.0005 -0.0000
 
spin component  4
 
  0.8065 -0.0008  0.0072 -0.0008  0.0000      0.0000  0.0002  0.0000 -0.0002 -0.0215
 -0.0008  0.8065 -0.0036 -0.0008  0.0063     -0.0002 -0.0000  0.0186  0.0002  0.0108
  0.0072 -0.0036  0.4287 -0.0036  0.0000     -0.0000 -0.0186  0.0000  0.0187 -0.0034
 -0.0008 -0.0008 -0.0036  0.8065 -0.0063      0.0002 -0.0002 -0.0187  0.0000  0.0108
  0.0000  0.0063  0.0000 -0.0063  0.4287      0.0215 -0.0108  0.0034 -0.0108  0.0000
 
 occupancies and eigenvectors
 
  o =  0.4239  v = -0.0204 -0.0204  0.0000 -0.0204  0.0000 -0.0263  0.0131 -0.7062  0.0132 -0.0001      0.0000  0.0000 -0.0000  0.0000 -0.0000  0.0000 -0.0228  0.0003  0.0228 -0.7057
  o =  0.4282  v =  0.0208 -0.0104  0.0015 -0.0104  0.0000  0.0535 -0.0268 -0.7033 -0.0268 -0.0001      0.0000  0.0180 -0.0000 -0.0180  0.0015 -0.0000 -0.0463  0.0002  0.0463  0.7039
  o =  0.8049  v = -0.0032  0.0016  0.0056  0.0016  0.0000 -0.5776 -0.5772 -0.0000 -0.5772  0.0000      0.0000  0.0027  0.0000 -0.0027 -0.0056 -0.0005 -0.0011  0.0000 -0.0010  0.0000
  o =  0.8084  v =  0.0043  0.0043 -0.0000  0.0043  0.0000 -0.5774  0.2861  0.0320  0.2917 -0.0000      0.0000  0.0000 -0.0000 -0.0000 -0.0000  0.0010 -0.4990 -0.0003  0.4985  0.0322
  o =  0.8103  v =  0.0026 -0.0012 -0.0057 -0.0013 -0.0000 -0.5739  0.2899 -0.0655  0.2843  0.0002      0.0000  0.0022  0.0000 -0.0022 -0.0057  0.0010  0.4983  0.0003 -0.4987  0.0654
  o =  0.8727  v = -0.5745  0.2889 -0.0652  0.2859  0.0000  0.0027  0.0027  0.0000  0.0027 -0.0000      0.0000  0.4985  0.0001 -0.4977  0.0652 -0.0000 -0.0000 -0.0001 -0.0000 -0.0000
  o =  0.8744  v =  0.5762 -0.2874 -0.0329 -0.2901  0.0001  0.0008 -0.0005  0.0256 -0.0005 -0.0000      0.0000  0.4982  0.0002 -0.4995 -0.0330 -0.0000 -0.0008 -0.0000  0.0007 -0.0255
  o =  0.8761  v = -0.5775 -0.5768  0.0000 -0.5766  0.0000 -0.0034  0.0017  0.0252  0.0017 -0.0000      0.0000 -0.0013  0.0000 -0.0007  0.0000  0.0000 -0.0028  0.0000  0.0029  0.0252
  o =  1.1054  v =  0.0532 -0.0266 -0.7036 -0.0266 -0.0002 -0.0049 -0.0049  0.0000 -0.0049  0.0000      0.0000 -0.0461  0.0002  0.0461  0.7045  0.0000  0.0000  0.0000 -0.0000 -0.0000
  o =  1.1080  v =  0.0268 -0.0134  0.7068 -0.0134  0.0001 -0.0047  0.0024  0.0022  0.0024 -0.0000      0.0000  0.0233 -0.0005 -0.0233  0.7059  0.0000  0.0041  0.0000 -0.0041 -0.0022
atom =   2  type =  1  l = 2
 
 onsite density matrix
 
spin component  1
 
  0.8065 -0.0008  0.0072 -0.0008 -0.0000      0.0000 -0.0002  0.0000  0.0001  0.0215
 -0.0008  0.8065 -0.0036 -0.0008  0.0063      0.0002  0.0000 -0.0186 -0.0002 -0.0108
  0.0072 -0.0036  0.4287 -0.0036 -0.0000     -0.0000  0.0186  0.0000 -0.0186  0.0034
 -0.0008 -0.0008 -0.0036  0.8065 -0.0063     -0.0001  0.0002  0.0186 -0.0000 -0.0108
 -0.0000  0.0063 -0.0000 -0.0063  0.4287     -0.0215  0.0108 -0.0034  0.0108  0.0000
 
spin component  2
 
  0.0007 -0.0001 -0.0000 -0.0001  0.0000      0.0000  0.0003 -0.0000 -0.0003 -0.0131
 -0.0002 -0.0003  0.0098  0.0003  0.0057      0.0002 -0.0006 -0.0057 -0.0001 -0.0032
  0.0000 -0.0015 -0.0008 -0.0015  0.0000     -0.0000  0.0009 -0.0000 -0.0009 -0.0008
 -0.0002  0.0003  0.0098 -0.0003 -0.0057     -0.0002  0.0001  0.0057  0.0006 -0.0032
 -0.0000 -0.0009 -0.0000  0.0009  0.0008      0.0020  0.0005 -0.0008  0.0005 -0.0000
 
spin component  3
 
  0.0007 -0.0002  0.0000 -0.0002 -0.0000     -0.0000 -0.0002  0.0000  0.0002 -0.0020
 -0.0001 -0.0003 -0.0015  0.0003 -0.0009     -0.0003  0.0006 -0.0009 -0.0001 -0.0005
 -0.0000  0.0098 -0.0008  0.0098 -0.0000      0.0000  0.0057  0.0000 -0.0057  0.0008
 -0.0001  0.0003 -0.0015 -0.0003  0.0009      0.0003  0.0001  0.0009 -0.0006 -0.0005
  0.0000  0.0057  0.0000 -0.0057  0.0008      0.0131  0.0032  0.0008  0.0032  0.0000
 
spin component  4
 
  0.8748  0.0004 -0.0043  0.0004 -0.0000      0.0000  0.0001 -0.0000 -0.0001 -0.0131
  0.0004  0.8749  0.0022  0.0004 -0.0037     -0.0001 -0.0000  0.0114  0.0001  0.0066
 -0.0043  0.0022  1.1054  0.0021  0.0000      0.0000 -0.0114  0.0000  0.0114 -0.0020
  0.0004  0.0004  0.0021  0.8749  0.0037      0.0001 -0.0001 -0.0114  0.0000  0.0066
 -0.0000 -0.0037  0.0000  0.0037  1.1054      0.0131 -0.0066  0.0020 -0.0066  0.0000
 
 occupancies and eigenvectors
 
  o =  0.4240  v =  0.0263 -0.0132  0.7061 -0.0131 -0.0004 -0.0204 -0.0204  0.0000 -0.0204 -0.0000      0.0000 -0.0228 -0.0011  0.0228 -0.7058  0.0000  0.0000  0.0000  0.0000  0.0000
  o =  0.4282  v = -0.0535  0.0267  0.7035  0.0268 -0.0002  0.0208 -0.0104  0.0015 -0.0104  0.0000      0.0000 -0.0463 -0.0005  0.0463  0.7037  0.0000 -0.0180 -0.0000  0.0180 -0.0015
  o =  0.8049  v =  0.5776  0.5773 -0.0000  0.5771  0.0000 -0.0031  0.0016  0.0056  0.0016  0.0000      0.0000  0.0003 -0.0000  0.0006  0.0000  0.0001 -0.0027  0.0000  0.0027  0.0056
  o =  0.8084  v = -0.5756  0.2870  0.0322  0.2893 -0.0000 -0.0043 -0.0043 -0.0000 -0.0043 -0.0000      0.0000  0.5004  0.0001 -0.5001 -0.0320  0.0000 -0.0000  0.0000 -0.0000 -0.0000
  o =  0.8103  v =  0.5757 -0.2892  0.0654 -0.2867 -0.0001  0.0026 -0.0013 -0.0057 -0.0013 -0.0000      0.0000  0.4967  0.0001 -0.4973  0.0655  0.0000 -0.0023 -0.0000  0.0022  0.0057
  o =  0.8727  v = -0.0027 -0.0027  0.0000 -0.0027  0.0001 -0.5759  0.2796 -0.0651  0.2961 -0.0013      0.0000  0.0000 -0.0000  0.0000  0.0000  0.0118 -0.5024  0.0011  0.4913 -0.0652
  o =  0.8744  v =  0.0009 -0.0004  0.0255 -0.0004  0.0005 -0.5752  0.2959  0.0330  0.2791 -0.0007      0.0000  0.0008 -0.0005 -0.0008  0.0255  0.0121  0.4945 -0.0005 -0.5055 -0.0328
  o =  0.8761  v = -0.0033  0.0016  0.0252  0.0017  0.0001  0.5768  0.5769 -0.0000  0.5771  0.0001      0.0000  0.0030  0.0002 -0.0029 -0.0252  0.0029  0.0038 -0.0000  0.0038 -0.0000
  o =  1.1054  v = -0.0049 -0.0048 -0.0000 -0.0049  0.0000 -0.0532  0.0264  0.7038  0.0268  0.0022      0.0000  0.0000  0.0000  0.0000  0.0000  0.0002 -0.0462 -0.0033  0.0460  0.7043
  o =  1.1080  v =  0.0047 -0.0024 -0.0022 -0.0024 -0.0000  0.0268 -0.0135  0.7066 -0.0134 -0.0000      0.0000  0.0041  0.0000 -0.0041 -0.0022  0.0000 -0.0233 -0.0012  0.0233 -0.7060
     EDDAV:  cpu time    0.4260: real time    0.4262
 BZINTS: Fermi energy:  5.820429; 44.000000 electrons
         Band energy:-644.464436;  BLOECHL correction:  0.000000
       DOS:  cpu time    0.0005: real time    0.0005
    CHARGE:  cpu time    0.0264: real time    0.0265
    MIXING:  cpu time    0.0013: real time    0.0013
    --------------------------------------------
      LOOP:  cpu time    0.4955: real time    0.4958

 eigenvalue-minimisations  :  1328
 total energy-change (2. order) : 0.9945957E+00  (-0.6706656E+00)
 number of electron      44.0000077 magnetization      -0.0000415      0.0000219     -0.0000019
 augmentation part       20.3451109 magnetization       0.0001349      0.0000284      0.0001451

 Broyden mixing:
  rms(total) = 0.17352E+01    rms(broyden)= 0.17343E+01
  rms(prec ) = 0.19435E+01
  weight for this iteration     100.00

 eigenvalues of (default mixing * dielectric matrix)
  average eigenvalue GAMMA=   0.9691
  0.9691

 Free energy of the ion-electron system (eV)
  ---------------------------------------------------
  alpha Z        PSCENC =       311.81991378
  Ewald energy   TEWEN  =     -5345.56183988
  -Hartree energ DENC   =     -2197.43606419
  -exchange      EXHF   =         0.00000000
  -V(xc)+E(xc)   XCENC  =       233.92605584
  PAW double counting   =      6559.34406174    -6802.64441892
  entropy T*S    EENTRO =         0.00000000
  eigenvalues    EBANDS =      -644.46443585
  atomic energy  EATOM  =      7866.74061565
  Solvation  Ediel_sol  =         0.00000000
  ---------------------------------------------------
  free energy    TOTEN  =       -18.27611183 eV

  energy without entropy =      -18.27611183  energy(sigma->0) =      -18.27611183


--------------------------------------------------------------------------------------------------------




--------------------------------------- Iteration      1(   7)  ---------------------------------------


    POTLOK:  cpu time    0.0301: real time    0.0302
    SETDIJ:  cpu time    0.0090: real time    0.0090
atom =   1  type =  1  l = 2
 
 onsite density matrix
 
spin component  1
 
  0.8708 -0.0005 -0.0012 -0.0005 -0.0000      0.0000 -0.0001 -0.0000  0.0001  0.0101
 -0.0005  0.8708  0.0006 -0.0005 -0.0010      0.0001  0.0000 -0.0087 -0.0001 -0.0050
 -0.0012  0.0006  1.1174  0.0006  0.0000      0.0000  0.0087  0.0000 -0.0088  0.0001
 -0.0005 -0.0005  0.0006  0.8708  0.0010     -0.0001  0.0001  0.0088 -0.0000 -0.0051
 -0.0000 -0.0010  0.0000  0.0010  1.1174     -0.0101  0.0050 -0.0001  0.0051  0.0000
 
spin component  2
 
 -0.0010 -0.0001 -0.0001 -0.0001 -0.0000      0.0000 -0.0004 -0.0000  0.0004 -0.0005
  0.0004  0.0005  0.0004 -0.0003  0.0003     -0.0001  0.0008 -0.0003  0.0002 -0.0001
  0.0002 -0.0166  0.0010 -0.0166  0.0000      0.0000  0.0097 -0.0000 -0.0097  0.0010
  0.0004 -0.0003  0.0004  0.0005 -0.0003      0.0001 -0.0003  0.0002 -0.0008 -0.0001
  0.0000 -0.0097  0.0000  0.0097 -0.0010      0.0222  0.0054  0.0010  0.0054 -0.0000
 
spin component  3
 
 -0.0010  0.0004  0.0002  0.0004  0.0000     -0.0000  0.0001 -0.0000 -0.0001 -0.0222
 -0.0001  0.0005 -0.0166 -0.0003 -0.0097      0.0004 -0.0008 -0.0097  0.0003 -0.0054
 -0.0001  0.0004  0.0010  0.0004  0.0000      0.0000  0.0003  0.0000 -0.0002 -0.0010
 -0.0001 -0.0003 -0.0166  0.0005  0.0097     -0.0004 -0.0002  0.0097  0.0008 -0.0054
 -0.0000  0.0003  0.0000 -0.0003 -0.0010      0.0005  0.0001 -0.0010  0.0001  0.0000
 
spin component  4
 
  0.8606  0.0000  0.0054  0.0000  0.0000      0.0000  0.0002  0.0000 -0.0002 -0.0253
  0.0000  0.8607 -0.0027  0.0000  0.0046     -0.0002  0.0000  0.0219  0.0002  0.0126
  0.0054 -0.0027  0.3154 -0.0027 -0.0000     -0.0000 -0.0219  0.0000  0.0219 -0.0015
  0.0000  0.0000 -0.0027  0.8607 -0.0046      0.0002 -0.0002 -0.0219 -0.0000  0.0126
  0.0000  0.0046 -0.0000 -0.0046  0.3154      0.0253 -0.0126  0.0015 -0.0126  0.0000
 
 occupancies and eigenvectors
 
  o =  0.3115  v =  0.0278  0.0279  0.0000  0.0279 -0.0000  0.0255 -0.0128  0.7070 -0.0127 -0.0002      0.0000 -0.0001  0.0000  0.0001 -0.0000  0.0000  0.0222  0.0003 -0.0223  0.7041
  o =  0.3130  v = -0.0284  0.0141 -0.0013  0.0141  0.0000 -0.0395  0.0198  0.7031  0.0198 -0.0000      0.0000 -0.0245  0.0000  0.0245 -0.0013  0.0000  0.0341  0.0001 -0.0342 -0.7060
  o =  0.8607  v = -0.0090  0.0049  0.0009  0.0016  0.0001 -0.5779 -0.5697  0.0008 -0.5809 -0.0002      0.0000  0.0071  0.0002 -0.0085 -0.0009 -0.0371 -0.0426  0.0004 -0.0235 -0.0000
  o =  0.8621  v = -0.0029 -0.0049  0.0001 -0.0062  0.0001  0.4985 -0.5191 -0.0256 -0.0027  0.0158      0.0000 -0.0030  0.0001 -0.0044 -0.0001  0.2937  0.2720 -0.0161 -0.5654 -0.0277
  o =  0.8628  v =  0.0172 -0.0100 -0.0026 -0.0127 -0.0002 -0.5693  0.3129 -0.0475  0.2421  0.0044      0.0000  0.0171  0.0002 -0.0128 -0.0028  0.0569  0.4792  0.0035 -0.5301  0.0467
  o =  0.8708  v = -0.5923  0.2552 -0.0399  0.2750 -0.0003  0.0089  0.0092  0.0014  0.0072  0.0004      0.0000  0.5095 -0.0008 -0.4955  0.0394  0.0010  0.0039 -0.0000  0.0006  0.0010
  o =  0.8710  v =  0.5530  0.5853 -0.0013  0.5904 -0.0005  0.0015 -0.0033 -0.0347 -0.0002  0.0002      0.0000  0.0268 -0.0003 -0.0043  0.0015 -0.0005  0.0063 -0.0007 -0.0042 -0.0341
  o =  0.8720  v = -0.5829  0.2948  0.0312  0.2794 -0.0001 -0.0150  0.0065 -0.0360  0.0070 -0.0002      0.0000 -0.4913  0.0005  0.4985  0.0318 -0.0007  0.0149 -0.0005 -0.0164  0.0360
  o =  1.1180  v =  0.0263 -0.0134  0.6931 -0.0128 -0.0009 -0.0016  0.0008  0.0027  0.0008  0.0000      0.0000  0.0217  0.0088 -0.0218  0.7194  0.0000  0.0013  0.0000 -0.0013 -0.0027
  o =  1.1181  v =  0.0319 -0.0157 -0.7189 -0.0163  0.0004 -0.0012 -0.0013 -0.0000 -0.0012 -0.0000      0.0000 -0.0284 -0.0078  0.0285  0.6928 -0.0000 -0.0001 -0.0000 -0.0001  0.0001
atom =   2  type =  1  l = 2
 
 onsite density matrix
 
spin component  1
 
  0.8606  0.0000  0.0054  0.0000 -0.0000      0.0000 -0.0002  0.0000  0.0002  0.0252
  0.0000  0.8606 -0.0027  0.0000  0.0046      0.0002 -0.0000 -0.0219 -0.0002 -0.0126
  0.0054 -0.0027  0.3154 -0.0027 -0.0000     -0.0000  0.0219  0.0000 -0.0219  0.0015
  0.0000  0.0000 -0.0027  0.8607 -0.0046     -0.0002  0.0002  0.0219  0.0000 -0.0126
 -0.0000  0.0046 -0.0000 -0.0046  0.3154     -0.0252  0.0126 -0.0015  0.0126  0.0000
 
spin component  2
 
  0.0010 -0.0004 -0.0002 -0.0004 -0.0000      0.0000  0.0001 -0.0000 -0.0002 -0.0222
  0.0001 -0.0005  0.0166  0.0003  0.0097      0.0004 -0.0008 -0.0097  0.0002 -0.0054
  0.0001 -0.0004 -0.0010 -0.0004  0.0000      0.0000  0.0003 -0.0000 -0.0003 -0.0010
  0.0001  0.0004  0.0166 -0.0005 -0.0097     -0.0004 -0.0003  0.0097  0.0008 -0.0054
 -0.0000 -0.0003 -0.0000  0.0003  0.0010      0.0005  0.0001 -0.0010  0.0001 -0.0000
 
spin component  3
 
  0.0010  0.0001  0.0001  0.0001 -0.0000     -0.0000 -0.0004 -0.0000  0.0004 -0.0005
 -0.0004 -0.0005 -0.0004  0.0004 -0.0003     -0.0001  0.0008 -0.0003  0.0003 -0.0001
 -0.0002  0.0166 -0.0010  0.0166 -0.0000      0.0000  0.0097  0.0000 -0.0097  0.0010
 -0.0004  0.0003 -0.0004 -0.0005  0.0003      0.0002 -0.0002  0.0003 -0.0008 -0.0001
 -0.0000  0.0097  0.0000 -0.0097  0.0010      0.0222  0.0054  0.0010  0.0054  0.0000
 
spin component  4
 
  0.8708 -0.0005 -0.0012 -0.0005  0.0000      0.0000  0.0001  0.0000 -0.0001 -0.0101
 -0.0005  0.8708  0.0006 -0.0005 -0.0010     -0.0001 -0.0000  0.0088  0.0001  0.0051
 -0.0012  0.0006  1.1174  0.0006  0.0000     -0.0000 -0.0088  0.0000  0.0088 -0.0001
 -0.0005 -0.0005  0.0006  0.8708  0.0010      0.0001 -0.0001 -0.0088  0.0000  0.0051
  0.0000 -0.0010  0.0000  0.0010  1.1174      0.0101 -0.0051  0.0001 -0.0051  0.0000
 
 occupancies and eigenvectors
 
  o =  0.3115  v = -0.0256  0.0129 -0.7058  0.0126  0.0010  0.0279  0.0280 -0.0000  0.0278  0.0000      0.0000  0.0222  0.0044 -0.0222  0.7053 -0.0000 -0.0001  0.0000 -0.0002  0.0000
  o =  0.3130  v =  0.0395 -0.0196 -0.7044 -0.0199  0.0007 -0.0283  0.0142 -0.0013  0.0141 -0.0000      0.0000  0.0342  0.0028 -0.0342 -0.7048 -0.0000  0.0244  0.0000 -0.0246  0.0013
  o =  0.8607  v = -0.5832 -0.5862  0.0009 -0.5616  0.0004  0.0072 -0.0044 -0.0010 -0.0036 -0.0000      0.0000  0.0245  0.0009  0.0005 -0.0002 -0.0002  0.0077  0.0000 -0.0067 -0.0010
  o =  0.8620  v =  0.5669 -0.3450 -0.0308 -0.2491  0.0003  0.0066  0.0080 -0.0000  0.0057 -0.0001      0.0000 -0.4792  0.0038  0.5156  0.0310  0.0044  0.0043 -0.0001  0.0030 -0.0000
  o =  0.8628  v = -0.5797  0.2504 -0.0472  0.3194 -0.0003 -0.0179  0.0113  0.0025  0.0105 -0.0001      0.0000 -0.4917  0.0027  0.5021 -0.0475  0.0013  0.0136 -0.0000 -0.0132 -0.0028
  o =  0.8708  v = -0.0058 -0.0093 -0.0004 -0.0081  0.0007 -0.5832  0.3165 -0.0395  0.2365  0.0045      0.0000  0.0006  0.0021 -0.0026  0.0008 -0.0430 -0.4386 -0.0033  0.5533 -0.0395
  o =  0.8710  v =  0.0053 -0.0031 -0.0285 -0.0027 -0.0187 -0.4827 -0.4801 -0.0004 -0.4573 -0.0023      0.0000 -0.0058 -0.0201  0.0084  0.0284 -0.2919 -0.3519  0.0011 -0.3404 -0.0006
  o =  0.8720  v = -0.0156  0.0082 -0.0355  0.0056  0.0017  0.5785 -0.2560 -0.0316 -0.3029 -0.0027      0.0000 -0.0127 -0.0029  0.0148 -0.0362  0.0376 -0.5328 -0.0013  0.4664  0.0313
  o =  1.1180  v =  0.0015 -0.0008 -0.0027 -0.0008  0.0000  0.0258 -0.0115  0.7032 -0.0142 -0.0165      0.0000  0.0012 -0.0000 -0.0013 -0.0027 -0.0009 -0.0217  0.0352  0.0226 -0.7085
  o =  1.1181  v =  0.0012  0.0013  0.0000  0.0012 -0.0001  0.0323 -0.0186 -0.7050 -0.0137  0.0156      0.0000  0.0001  0.0001  0.0001  0.0000  0.0010  0.0275 -0.0676 -0.0285 -0.7035
     EDDAV:  cpu time    0.4457: real time    0.4457
 BZINTS: Fermi energy:  5.620296; 44.000000 electrons
         Band energy:-651.523321;  BLOECHL correction:  0.000000
       DOS:  cpu time    0.0005: real time    0.0005
    CHARGE:  cpu time    0.0261: real time    0.0261
    MIXING:  cpu time    0.0014: real time    0.0013
    --------------------------------------------
      LOOP:  cpu time    0.5128: real time    0.5129

 eigenvalue-minimisations  :  1408
 total energy-change (2. order) :-0.2740225E+00  (-0.2510476E+00)
 number of electron      44.0000075 magnetization       0.0000364      0.0000525      0.0000003
 augmentation part       20.4223733 magnetization       0.0001152      0.0000143      0.0001296

 Broyden mixing:
  rms(total) = 0.14460E+01    rms(broyden)= 0.14460E+01
  rms(prec ) = 0.14823E+01
  weight for this iteration     100.00

 eigenvalues of (default mixing * dielectric matrix)
  average eigenvalue GAMMA=   1.6789
  1.6789  1.6789

 Free energy of the ion-electron system (eV)
  ---------------------------------------------------
  alpha Z        PSCENC =       311.81991378
  Ewald energy   TEWEN  =     -5345.56183988
  -Hartree energ DENC   =     -2189.91605870
  -exchange      EXHF   =         0.00000000
  -V(xc)+E(xc)   XCENC  =       234.10880876
  PAW double counting   =      6698.16814915    -6942.38640239
  entropy T*S    EENTRO =         0.00000000
  eigenvalues    EBANDS =      -651.52332074
  atomic energy  EATOM  =      7866.74061565
  Solvation  Ediel_sol  =         0.00000000
  ---------------------------------------------------
  free energy    TOTEN  =       -18.55013436 eV

  energy without entropy =      -18.55013436  energy(sigma->0) =      -18.55013436


--------------------------------------------------------------------------------------------------------




--------------------------------------- Iteration      1(   8)  ---------------------------------------


    POTLOK:  cpu time    0.0299: real time    0.0300
    SETDIJ:  cpu time    0.0090: real time    0.0090
atom =   1  type =  1  l = 2
 
 onsite density matrix
 
spin component  1
 
  0.9128 -0.0003  0.0033 -0.0003  0.0000      0.0000 -0.0002 -0.0000  0.0002  0.0007
 -0.0003  0.9128 -0.0017 -0.0003  0.0029      0.0002 -0.0000 -0.0006 -0.0002 -0.0004
  0.0033 -0.0017  1.0145 -0.0017  0.0000      0.0000  0.0006  0.0000 -0.0006 -0.0002
 -0.0003 -0.0003 -0.0017  0.9129 -0.0029     -0.0002  0.0002  0.0006  0.0000 -0.0004
  0.0000  0.0029  0.0000 -0.0029  1.0145     -0.0007  0.0004  0.0002  0.0004  0.0000
 
spin component  2
 
 -0.0009 -0.0002  0.0001 -0.0003  0.0000      0.0000 -0.0003  0.0000  0.0003 -0.0005
  0.0004  0.0004  0.0004 -0.0001  0.0002      0.0001  0.0008 -0.0002  0.0003 -0.0001
  0.0001 -0.0199  0.0006 -0.0199  0.0000      0.0000  0.0116 -0.0000 -0.0116  0.0006
  0.0004 -0.0001  0.0004  0.0004 -0.0002     -0.0001 -0.0003  0.0002 -0.0008 -0.0002
 -0.0000 -0.0116 -0.0000  0.0116 -0.0005      0.0266  0.0065  0.0005  0.0065 -0.0000
 
spin component  3
 
 -0.0009  0.0004  0.0001  0.0004 -0.0000     -0.0000 -0.0001 -0.0000  0.0001 -0.0266
 -0.0002  0.0004 -0.0199 -0.0001 -0.0116      0.0003 -0.0008 -0.0116  0.0003 -0.0065
  0.0001  0.0004  0.0006  0.0004 -0.0000     -0.0000  0.0002  0.0000 -0.0002 -0.0005
 -0.0003 -0.0001 -0.0199  0.0004  0.0116     -0.0003 -0.0003  0.0116  0.0008 -0.0065
  0.0000  0.0002  0.0000 -0.0002 -0.0005      0.0005  0.0001 -0.0006  0.0002  0.0000
 
spin component  4
 
  0.8942 -0.0001 -0.0004 -0.0001 -0.0000      0.0000  0.0000  0.0000 -0.0000 -0.0219
 -0.0001  0.8942  0.0002 -0.0001 -0.0004     -0.0000  0.0000  0.0190  0.0001  0.0110
 -0.0004  0.0002  0.2957  0.0002 -0.0000     -0.0000 -0.0190  0.0000  0.0190 -0.0009
 -0.0001 -0.0001  0.0002  0.8942  0.0004      0.0000 -0.0001 -0.0190 -0.0000  0.0110
 -0.0000 -0.0004 -0.0000  0.0004  0.2957      0.0219 -0.0110  0.0009 -0.0110  0.0000
 
 occupancies and eigenvectors
 
  o =  0.2919  v =  0.0303  0.0301 -0.0000  0.0300 -0.0000  0.0264 -0.0132  0.7021 -0.0131 -0.0001      0.0000  0.0002  0.0000 -0.0001 -0.0000  0.0000  0.0226  0.0018 -0.0226  0.7087
  o =  0.2937  v = -0.0304  0.0154 -0.0008  0.0154  0.0000 -0.0252  0.0125  0.7087  0.0126 -0.0001      0.0000 -0.0264  0.0000  0.0265 -0.0008  0.0000  0.0220  0.0016 -0.0220 -0.7021
  o =  0.8941  v =  0.0048 -0.0014 -0.0038 -0.0014 -0.0017  0.5185  0.5102 -0.0006  0.5355 -0.0003      0.0000 -0.0052 -0.0018  0.0043  0.0037  0.2414  0.2593 -0.0007  0.2417  0.0002
  o =  0.8954  v =  0.0127 -0.0050 -0.0033 -0.0080 -0.0000 -0.5788  0.2861 -0.0307  0.2622  0.0021      0.0000  0.0067  0.0001 -0.0078 -0.0038  0.0465  0.4919  0.0007 -0.5177  0.0299
  o =  0.8956  v =  0.0025  0.0039  0.0002  0.0039 -0.0002 -0.5135  0.0543  0.0285  0.4703  0.0150      0.0000 -0.0053  0.0000  0.0018  0.0005  0.2656 -0.5866 -0.0133  0.3087  0.0288
  o =  0.9134  v =  0.5997 -0.2918 -0.0228 -0.2621  0.0009 -0.0011 -0.0057 -0.0004 -0.0067 -0.0000      0.0000 -0.5129 -0.0008  0.4715  0.0219 -0.0042 -0.0019  0.0019  0.0003 -0.0017
  o =  0.9140  v =  0.5602  0.5774  0.0008  0.5897  0.0002  0.0017 -0.0010 -0.0371 -0.0018  0.0009      0.0000  0.0439  0.0012  0.0202 -0.0005 -0.0006  0.0018 -0.0018 -0.0023 -0.0369
  o =  0.9143  v = -0.5686  0.2607  0.0353  0.3040  0.0013 -0.0076  0.0027 -0.0379  0.0023  0.0010      0.0000 -0.4954  0.0002  0.5150  0.0359 -0.0008  0.0105  0.0002 -0.0103  0.0378
  o =  1.0145  v =  0.0301 -0.0152  0.7523 -0.0151 -0.0051 -0.0021  0.0015  0.0026  0.0012 -0.0000      0.0000  0.0241 -0.0031 -0.0240  0.6569 -0.0001  0.0022  0.0000 -0.0022 -0.0026
  o =  1.0148  v = -0.0163  0.0078 -0.6575  0.0086 -0.0138 -0.0036 -0.0029  0.0002 -0.0032  0.0000      0.0000  0.0174 -0.0042 -0.0177  0.7526  0.0001  0.0004  0.0000 -0.0004 -0.0002
atom =   2  type =  1  l = 2
 
 onsite density matrix
 
spin component  1
 
  0.8942 -0.0001 -0.0004 -0.0000 -0.0000      0.0000 -0.0000  0.0000  0.0000  0.0219
 -0.0001  0.8942  0.0002 -0.0000 -0.0004      0.0000 -0.0000 -0.0190 -0.0001 -0.0110
 -0.0004  0.0002  0.2957  0.0002  0.0000     -0.0000  0.0190  0.0000 -0.0190  0.0009
 -0.0000 -0.0000  0.0002  0.8942  0.0004     -0.0000  0.0001  0.0190  0.0000 -0.0109
 -0.0000 -0.0004  0.0000  0.0004  0.2957     -0.0219  0.0110 -0.0009  0.0109  0.0000
 
spin component  2
 
  0.0009 -0.0004 -0.0001 -0.0004  0.0000      0.0000 -0.0001 -0.0000  0.0001 -0.0266
  0.0003 -0.0005  0.0199  0.0001  0.0116      0.0003 -0.0008 -0.0116  0.0003 -0.0065
 -0.0001 -0.0004 -0.0006 -0.0004 -0.0000     -0.0000  0.0002  0.0000 -0.0002 -0.0005
  0.0003  0.0001  0.0199 -0.0004 -0.0116     -0.0004 -0.0003  0.0116  0.0008 -0.0065
 -0.0000 -0.0002 -0.0000  0.0002  0.0006      0.0005  0.0002 -0.0006  0.0002 -0.0000
 
spin component  3
 
  0.0009  0.0003 -0.0001  0.0003 -0.0000     -0.0000 -0.0003  0.0000  0.0004 -0.0005
 -0.0004 -0.0005 -0.0004  0.0001 -0.0002      0.0001  0.0008 -0.0002  0.0003 -0.0002
 -0.0001  0.0199 -0.0006  0.0199 -0.0000      0.0000  0.0116 -0.0000 -0.0116  0.0006
 -0.0004  0.0001 -0.0004 -0.0004  0.0002     -0.0001 -0.0003  0.0002 -0.0008 -0.0002
  0.0000  0.0116 -0.0000 -0.0116  0.0006      0.0266  0.0065  0.0005  0.0065  0.0000
 
spin component  4
 
  0.9129 -0.0003  0.0034 -0.0003  0.0000      0.0000  0.0002 -0.0000 -0.0002 -0.0007
 -0.0003  0.9129 -0.0017 -0.0003  0.0029     -0.0002  0.0000  0.0006  0.0002  0.0004
  0.0034 -0.0017  1.0145 -0.0017 -0.0000      0.0000 -0.0006  0.0000  0.0006  0.0002
 -0.0003 -0.0003 -0.0017  0.9129 -0.0029      0.0002 -0.0002 -0.0006 -0.0000  0.0004
  0.0000  0.0029 -0.0000 -0.0029  1.0145      0.0007 -0.0004 -0.0002 -0.0004  0.0000
 
 occupancies and eigenvectors
 
  o =  0.2919  v = -0.0263  0.0131 -0.7054  0.0132 -0.0005  0.0302  0.0301 -0.0000  0.0302 -0.0000      0.0000  0.0227 -0.0014 -0.0227  0.7054  0.0000  0.0000  0.0000  0.0001  0.0000
  o =  0.2937  v =  0.0253 -0.0127 -0.7055 -0.0126  0.0006 -0.0305  0.0152 -0.0008  0.0153 -0.0000      0.0000  0.0219 -0.0015 -0.0219 -0.7054 -0.0000  0.0265 -0.0000 -0.0264  0.0009
  o =  0.8941  v =  0.5803  0.5854 -0.0010  0.5657 -0.0001 -0.0034  0.0026  0.0043  0.0026  0.0002      0.0000 -0.0187 -0.0006  0.0145  0.0002  0.0004 -0.0038 -0.0001  0.0042  0.0042
  o =  0.8953  v =  0.5851 -0.2684  0.0302 -0.2932 -0.0003  0.0126 -0.0080 -0.0033 -0.0074  0.0001      0.0000  0.4908 -0.0008 -0.5065  0.0305 -0.0002 -0.0057 -0.0000  0.0061  0.0035
  o =  0.8956  v =  0.5653 -0.3219 -0.0318 -0.2760  0.0004  0.0021  0.0045  0.0002  0.0031 -0.0002      0.0000 -0.4888  0.0014  0.5095  0.0321 -0.0000  0.0025 -0.0002 -0.0046 -0.0001
  o =  0.9134  v =  0.0006 -0.0064  0.0001 -0.0052  0.0004 -0.5125  0.5143  0.0199 -0.0325 -0.0126      0.0000 -0.0019 -0.0014 -0.0053  0.0016 -0.2921 -0.2817  0.0108  0.5532  0.0186
  o =  0.9140  v = -0.0013  0.0005  0.0355 -0.0006 -0.0131  0.5087  0.5508  0.0014  0.5460 -0.0003      0.0000  0.0034 -0.0143 -0.0022 -0.0333 -0.1995 -0.2163 -0.0007 -0.2243 -0.0004
  o =  0.9143  v = -0.0069  0.0039 -0.0367  0.0014  0.0028  0.5913 -0.2184 -0.0355 -0.3207 -0.0033      0.0000 -0.0099 -0.0025  0.0099 -0.0387  0.0252 -0.5050 -0.0017  0.4883  0.0354
  o =  1.0145  v =  0.0024 -0.0013 -0.0026 -0.0011  0.0000  0.0292 -0.0140  0.7073 -0.0150  0.0153      0.0000  0.0021 -0.0000 -0.0020 -0.0026  0.0004 -0.0252  0.0094  0.0249 -0.7048
  o =  1.0148  v =  0.0036  0.0031 -0.0000  0.0032  0.0000 -0.0183  0.0085 -0.7045  0.0100 -0.0335      0.0000 -0.0001 -0.0000 -0.0001 -0.0000  0.0009 -0.0165  0.0392  0.0155 -0.7071
     EDDAV:  cpu time    0.3533: real time    0.3533
 BZINTS: Fermi energy:  5.729488; 44.000000 electrons
         Band energy:-639.571465;  BLOECHL correction:  0.000000
       DOS:  cpu time    0.0005: real time    0.0005
    CHARGE:  cpu time    0.0261: real time    0.0261
    MIXING:  cpu time    0.0015: real time    0.0015
    --------------------------------------------
      LOOP:  cpu time    0.4202: real time    0.4203

 eigenvalue-minimisations  :  1072
 total energy-change (2. order) :-0.3729776E+00  (-0.6899388E-01)
 number of electron      44.0000075 magnetization      -0.0005200      0.0001863     -0.0000006
 augmentation part       20.2650836 magnetization      -0.0005174      0.0002703      0.0000591

 Broyden mixing:
  rms(total) = 0.65796E+00    rms(broyden)= 0.65794E+00
  rms(prec ) = 0.74109E+00
  weight for this iteration     100.00

 eigenvalues of (default mixing * dielectric matrix)
  average eigenvalue GAMMA=   1.7286
  2.1259  1.5299  1.5299

 Free energy of the ion-electron system (eV)
  ---------------------------------------------------
  alpha Z        PSCENC =       311.81991378
  Ewald energy   TEWEN  =     -5345.56183988
  -Hartree energ DENC   =     -2196.07652400
  -exchange      EXHF   =         0.00000000
  -V(xc)+E(xc)   XCENC  =       234.29098087
  PAW double counting   =      6972.93913074    -7223.50392423
  entropy T*S    EENTRO =         0.00000000
  eigenvalues    EBANDS =      -639.57146488
  atomic energy  EATOM  =      7866.74061565
  Solvation  Ediel_sol  =         0.00000000
  ---------------------------------------------------
  free energy    TOTEN  =       -18.92311194 eV

  energy without entropy =      -18.92311194  energy(sigma->0) =      -18.92311194


--------------------------------------------------------------------------------------------------------




--------------------------------------- Iteration      1(   9)  ---------------------------------------


    POTLOK:  cpu time    0.0299: real time    0.0300
    SETDIJ:  cpu time    0.0089: real time    0.0089
atom =   1  type =  1  l = 2
 
 onsite density matrix
 
spin component  1
 
  0.9202 -0.0007  0.0036 -0.0007  0.0000      0.0000 -0.0001 -0.0000  0.0001  0.0016
 -0.0007  0.9202 -0.0018 -0.0007  0.0031      0.0001 -0.0000 -0.0014 -0.0001 -0.0008
  0.0036 -0.0018  1.0370 -0.0018 -0.0000      0.0000  0.0014  0.0000 -0.0014 -0.0008
 -0.0007 -0.0007 -0.0018  0.9202 -0.0031     -0.0001  0.0001  0.0014  0.0000 -0.0008
  0.0000  0.0031 -0.0000 -0.0031  1.0370     -0.0016  0.0008  0.0008  0.0008  0.0000
 
spin component  2
 
 -0.0010 -0.0004 -0.0001 -0.0003 -0.0000     -0.0000 -0.0002 -0.0000  0.0002 -0.0001
  0.0004  0.0005  0.0001 -0.0000  0.0001      0.0002  0.0008 -0.0001  0.0004  0.0000
  0.0002 -0.0233  0.0005 -0.0233 -0.0000      0.0000  0.0136 -0.0000 -0.0136  0.0005
  0.0004 -0.0000  0.0001  0.0005 -0.0001     -0.0002 -0.0005  0.0001 -0.0008  0.0000
  0.0000 -0.0136 -0.0000  0.0136 -0.0006      0.0311  0.0076  0.0005  0.0076 -0.0000
 
spin component  3
 
 -0.0010  0.0004  0.0002  0.0004  0.0000      0.0000 -0.0002 -0.0000  0.0002 -0.0311
 -0.0004  0.0005 -0.0233 -0.0000 -0.0136      0.0002 -0.0008 -0.0136  0.0005 -0.0076
 -0.0001  0.0001  0.0005  0.0001 -0.0000      0.0000  0.0001  0.0000 -0.0001 -0.0005
 -0.0003 -0.0000 -0.0233  0.0005  0.0136     -0.0002 -0.0004  0.0136  0.0008 -0.0076
 -0.0000  0.0001 -0.0000 -0.0001 -0.0006      0.0001 -0.0000 -0.0005 -0.0000  0.0000
 
spin component  4
 
  0.9285  0.0003 -0.0026  0.0003 -0.0000      0.0000 -0.0003  0.0000  0.0003 -0.0262
  0.0003  0.9285  0.0013  0.0003 -0.0022      0.0003  0.0000  0.0227 -0.0003  0.0131
 -0.0026  0.0013  0.1930  0.0013  0.0000     -0.0000 -0.0227  0.0000  0.0227 -0.0000
  0.0003  0.0003  0.0013  0.9286  0.0022     -0.0003  0.0003 -0.0227 -0.0000  0.0131
 -0.0000 -0.0022  0.0000  0.0022  0.1930      0.0262 -0.0131  0.0000 -0.0131  0.0000
 
 occupancies and eigenvectors
 
  o =  0.1893  v = -0.0298 -0.0297 -0.0000 -0.0301  0.0000 -0.0275  0.0135 -0.7075  0.0140  0.0001      0.0000  0.0003 -0.0000  0.0002 -0.0000  0.0000 -0.0240  0.0092  0.0240 -0.7031
  o =  0.1899  v =  0.0304 -0.0149  0.0006 -0.0153 -0.0000  0.0228 -0.0117 -0.7033 -0.0111 -0.0000      0.0000  0.0265 -0.0000 -0.0259  0.0006  0.0000 -0.0196  0.0092  0.0195  0.7078
  o =  0.9208  v = -0.5495 -0.5723 -0.0006 -0.6041 -0.0005  0.0091 -0.0046  0.0360 -0.0006 -0.0011      0.0000 -0.0522 -0.0005 -0.0039  0.0007  0.0021  0.0098  0.0011 -0.0066  0.0361
  o =  0.9210  v =  0.6037 -0.2455 -0.0145 -0.2744 -0.0005  0.0158  0.0114 -0.0018  0.0121 -0.0011      0.0000 -0.5242 -0.0004  0.4736  0.0146 -0.0019 -0.0015  0.0011 -0.0006 -0.0019
  o =  0.9222  v = -0.5738  0.2884  0.0400  0.2885  0.0000  0.0353 -0.0197 -0.0353 -0.0203 -0.0000      0.0000 -0.4970  0.0000  0.4977  0.0400 -0.0008 -0.0314 -0.0000  0.0296  0.0352
  o =  0.9292  v =  0.0138 -0.0069 -0.0000 -0.0088 -0.0002 -0.5875 -0.5619  0.0006 -0.5639 -0.0004      0.0000 -0.0083 -0.0000  0.0127 -0.0002  0.0744  0.0794 -0.0001  0.0933  0.0009
  o =  0.9295  v =  0.0079  0.0066 -0.0001  0.0069 -0.0000  0.5539 -0.4646 -0.0315 -0.1279  0.0098      0.0000  0.0047  0.0000 -0.0006 -0.0002  0.1656  0.3787 -0.0114 -0.5364 -0.0336
  o =  0.9298  v = -0.0322  0.0183  0.0014  0.0175 -0.0001 -0.5586  0.2645 -0.0308  0.3035  0.0011      0.0000 -0.0324 -0.0001  0.0302  0.0015  0.0150  0.4959 -0.0013 -0.5238  0.0291
  o =  1.0366  v = -0.0326  0.0162 -0.7090  0.0164 -0.0036  0.0008 -0.0004 -0.0026 -0.0004  0.0000      0.0000 -0.0282 -0.0005  0.0282 -0.7029 -0.0000 -0.0008 -0.0000  0.0008  0.0027
  o =  1.0379  v = -0.0118  0.0060 -0.7039  0.0057  0.0072 -0.0003 -0.0004  0.0000 -0.0003 -0.0000      0.0000  0.0104  0.0030 -0.0105  0.7100 -0.0001 -0.0000 -0.0000  0.0000 -0.0001
atom =   2  type =  1  l = 2
 
 onsite density matrix
 
spin component  1
 
  0.9286  0.0003 -0.0026  0.0003 -0.0000      0.0000  0.0003 -0.0000 -0.0003  0.0263
  0.0003  0.9285  0.0013  0.0003 -0.0022     -0.0003  0.0000 -0.0227  0.0003 -0.0131
 -0.0026  0.0013  0.1930  0.0013 -0.0000      0.0000  0.0227  0.0000 -0.0227  0.0000
  0.0003  0.0003  0.0013  0.9286  0.0022      0.0003 -0.0003  0.0227 -0.0000 -0.0131
 -0.0000 -0.0022 -0.0000  0.0022  0.1930     -0.0263  0.0131 -0.0000  0.0131  0.0000
 
spin component  2
 
  0.0010 -0.0004 -0.0003 -0.0004  0.0000      0.0000 -0.0002  0.0000  0.0002 -0.0311
  0.0003 -0.0005  0.0233  0.0000  0.0136      0.0002 -0.0009 -0.0136  0.0005 -0.0076
  0.0001 -0.0001 -0.0005 -0.0001 -0.0000      0.0000  0.0001 -0.0000 -0.0001 -0.0005
  0.0003  0.0000  0.0233 -0.0005 -0.0136     -0.0002 -0.0005  0.0136  0.0008 -0.0076
 -0.0000 -0.0001  0.0000  0.0001  0.0005      0.0001 -0.0000 -0.0005 -0.0000  0.0000
 
spin component  3
 
  0.0010  0.0003  0.0001  0.0003 -0.0000     -0.0000 -0.0002 -0.0000  0.0002 -0.0001
 -0.0004 -0.0005 -0.0001  0.0000 -0.0001      0.0002  0.0009 -0.0001  0.0005  0.0000
 -0.0003  0.0233 -0.0005  0.0233  0.0000     -0.0000  0.0136  0.0000 -0.0136  0.0005
 -0.0004  0.0000 -0.0001 -0.0005  0.0001     -0.0002 -0.0005  0.0001 -0.0008  0.0000
  0.0000  0.0136 -0.0000 -0.0136  0.0005      0.0311  0.0076  0.0005  0.0076 -0.0000
 
spin component  4
 
  0.9202 -0.0007  0.0036 -0.0007  0.0000      0.0000  0.0001 -0.0000 -0.0001 -0.0016
 -0.0007  0.9202 -0.0018 -0.0007  0.0031     -0.0001 -0.0000  0.0014  0.0001  0.0008
  0.0036 -0.0018  1.0370 -0.0018  0.0000      0.0000 -0.0014  0.0000  0.0014  0.0008
 -0.0007 -0.0007 -0.0018  0.9202 -0.0031      0.0001 -0.0001 -0.0014  0.0000  0.0008
  0.0000  0.0031  0.0000 -0.0031  1.0370      0.0016 -0.0008 -0.0008 -0.0008  0.0000
 
 occupancies and eigenvectors
 
  o =  0.1893  v =  0.0275 -0.0144  0.7079 -0.0131  0.0024 -0.0298 -0.0304  0.0000 -0.0295 -0.0000      0.0000 -0.0240 -0.0218  0.0240 -0.7024 -0.0001  0.0006 -0.0000  0.0008 -0.0000
  o =  0.1899  v = -0.0228  0.0106  0.7022  0.0122  0.0023  0.0304 -0.0156  0.0006 -0.0145 -0.0000      0.0000 -0.0195 -0.0263  0.0195  0.7085 -0.0001 -0.0254 -0.0000  0.0270 -0.0006
  o =  0.9208  v =  0.0130 -0.0036  0.0356 -0.0033  0.0044  0.5600  0.5884  0.0001  0.5688 -0.0004      0.0000 -0.0068  0.0040  0.0073 -0.0360  0.0593  0.0502  0.0001  0.0873  0.0007
  o =  0.9210  v =  0.0141  0.0129 -0.0010  0.0111  0.0004 -0.5946  0.2643  0.0146  0.2772  0.0002      0.0000  0.0008  0.0004 -0.0015  0.0012  0.0146 -0.4960 -0.0002  0.5025  0.0145
  o =  0.9222  v =  0.0388 -0.0182 -0.0356 -0.0194 -0.0000  0.5697 -0.2942 -0.0399 -0.2901  0.0002      0.0000  0.0293  0.0003 -0.0307 -0.0348 -0.0005 -0.4943  0.0002  0.5007  0.0400
  o =  0.9292  v = -0.5839 -0.5944  0.0007 -0.5517  0.0009 -0.0107  0.0079 -0.0000  0.0080  0.0000      0.0000  0.0290  0.0014  0.0111 -0.0006  0.0008 -0.0111 -0.0000  0.0117 -0.0001
  o =  0.9295  v = -0.5696  0.3526  0.0340  0.2371 -0.0013  0.0100  0.0077 -0.0001  0.0065 -0.0000      0.0000  0.4655 -0.0037 -0.5251 -0.0344  0.0015 -0.0014 -0.0001  0.0022  0.0002
  o =  0.9299  v =  0.5757 -0.2519  0.0299 -0.3226 -0.0005 -0.0349  0.0165  0.0015  0.0152 -0.0000      0.0000  0.4886 -0.0023 -0.5067  0.0301  0.0007  0.0306 -0.0000 -0.0330 -0.0016
  o =  1.0366  v =  0.0009 -0.0003 -0.0027 -0.0004 -0.0000  0.0325 -0.0167  0.7047 -0.0159 -0.0117      0.0000  0.0007  0.0000 -0.0008 -0.0027 -0.0004 -0.0280 -0.0058  0.0284 -0.7071
  o =  1.0378  v =  0.0002  0.0003 -0.0000  0.0004 -0.0000 -0.0119  0.0063 -0.7074  0.0057  0.0276      0.0000  0.0000  0.0000 -0.0000  0.0000 -0.0007 -0.0099 -0.0336  0.0106 -0.7052
     EDDAV:  cpu time    0.3875: real time    0.3875
 BZINTS: Fermi energy:  6.066670; 44.000000 electrons
         Band energy:-651.900091;  BLOECHL correction:  0.000000
       DOS:  cpu time    0.0006: real time    0.0006
    CHARGE:  cpu time    0.0260: real time    0.0260
    MIXING:  cpu time    0.0015: real time    0.0015
    --------------------------------------------
      LOOP:  cpu time    0.4544: real time    0.4545

 eigenvalue-minimisations  :  1200
 total energy-change (2. order) :-0.9556840E-01  (-0.3089033E-01)
 number of electron      44.0000075 magnetization      -0.0001010     -0.0001015     -0.0000012
 augmentation part       20.3671995 magnetization       0.0000892     -0.0001458      0.0000274

 Broyden mixing:
  rms(total) = 0.41858E+00    rms(broyden)= 0.41857E+00
  rms(prec ) = 0.44518E+00
  weight for this iteration     100.00

 eigenvalues of (default mixing * dielectric matrix)
  average eigenvalue GAMMA=   2.0563
  4.7756  1.1641  1.1641  1.1212

 Free energy of the ion-electron system (eV)
  ---------------------------------------------------
  alpha Z        PSCENC =       311.81991378
  Ewald energy   TEWEN  =     -5345.56183988
  -Hartree energ DENC   =     -2184.95106237
  -exchange      EXHF   =         0.00000000
  -V(xc)+E(xc)   XCENC  =       234.27042346
  PAW double counting   =      7076.41053344    -7325.84717377
[...]
 total augmentation occupancy for first ion, spin component:           3
 -0.000   0.000   0.000   0.000  -0.000  -0.000   0.000   0.000  -0.000   0.000  -0.000  -0.000  -0.000   0.000  -0.000   0.000
  0.000   0.000  -0.000   0.000  -0.000  -0.000   0.000   0.000   0.000  -0.000  -0.000  -0.000  -0.000  -0.000   0.000   0.000
  0.000  -0.000   0.000   0.000   0.000  -0.000   0.000   0.000  -0.000   0.000   0.000  -0.000  -0.000   0.000  -0.000  -0.000
  0.000   0.000   0.000   0.000   0.000   0.000  -0.000  -0.000   0.000   0.000   0.000   0.000   0.000  -0.000  -0.000  -0.000
 -0.000  -0.000   0.000   0.000  -0.000  -0.000   0.000  -0.000  -0.000  -0.000   0.000  -0.000   0.000   0.000   0.000  -0.000
 -0.000  -0.000  -0.000   0.000  -0.000  -0.000  -0.000   0.000  -0.000  -0.000  -0.000   0.000  -0.000  -0.000   0.000   0.000
  0.000   0.000   0.000  -0.000   0.000  -0.000  -0.000  -0.001   0.000   0.001  -0.014   0.000   0.001  -0.000  -0.001   0.008
  0.000   0.000   0.000  -0.000  -0.000   0.000  -0.001  -0.000  -0.006   0.000  -0.003   0.001  -0.000   0.004  -0.000   0.002
 -0.000   0.000  -0.000   0.000  -0.000  -0.000   0.000  -0.006   0.001   0.006  -0.005  -0.000  -0.013  -0.001   0.013   0.003
  0.000  -0.000   0.000   0.000  -0.000  -0.000   0.001   0.000   0.006  -0.000  -0.003  -0.001   0.000  -0.004   0.001   0.002
 -0.000  -0.000   0.000   0.000   0.000  -0.000  -0.014  -0.003  -0.005  -0.003   0.001  -0.029  -0.007   0.003  -0.007  -0.001
 -0.000  -0.000  -0.000   0.000  -0.000   0.000   0.000   0.001  -0.000  -0.001  -0.029  -0.000  -0.001   0.000   0.001   0.012
 -0.000  -0.000  -0.000   0.000   0.000  -0.000   0.001  -0.000  -0.013   0.000  -0.007  -0.001  -0.001   0.005   0.000   0.003
  0.000  -0.000   0.000  -0.000   0.000  -0.000  -0.000   0.004  -0.001  -0.004   0.003   0.000   0.005   0.001  -0.005  -0.002
 -0.000   0.000  -0.000  -0.000   0.000   0.000  -0.001  -0.000   0.013   0.001  -0.007   0.001   0.000  -0.005   0.000   0.003
  0.000   0.000  -0.000  -0.000  -0.000   0.000   0.008   0.002   0.003   0.002  -0.001   0.012   0.003  -0.002   0.003   0.001
  0.000   0.000   0.000   0.000   0.000   0.000   0.000  -0.000  -0.000   0.000   0.000   0.000   0.000   0.000  -0.000  -0.001
 -0.000  -0.000  -0.000  -0.000  -0.000  -0.000   0.000   0.000   0.000  -0.000   0.001  -0.000  -0.000  -0.000  -0.000  -0.000
 total augmentation occupancy for first ion, spin component:           4
 -0.001  -0.000  -0.000  -0.006  -0.000  -0.000  -0.000  -0.000  -0.000   0.000  -0.000   0.000   0.000   0.000  -0.000  -0.000
 -0.000  -0.001  -0.000  -0.000  -0.006  -0.000   0.000   0.000   0.000  -0.000   0.000  -0.000  -0.000   0.000   0.000  -0.000
 -0.000  -0.000  -0.001  -0.000  -0.000  -0.006  -0.000   0.000  -0.000  -0.000   0.000   0.000  -0.000   0.000   0.000  -0.000
 -0.006  -0.000  -0.000  -0.001   0.002   0.002   0.000  -0.000   0.000  -0.000   0.000  -0.000   0.000  -0.000   0.000   0.000
 -0.000  -0.006  -0.000   0.002  -0.001   0.002   0.000  -0.000  -0.000   0.000  -0.000  -0.000   0.000   0.000  -0.000  -0.000
 -0.000  -0.000  -0.006   0.002   0.002  -0.001  -0.000   0.000   0.000  -0.000   0.000   0.000  -0.000  -0.000   0.000  -0.000
 -0.000   0.000  -0.000   0.000   0.000  -0.000   0.732  -0.001   0.045  -0.001  -0.000  -0.435   0.001  -0.029   0.001   0.000
 -0.000   0.000   0.000  -0.000  -0.000   0.000  -0.001   0.732  -0.023  -0.001   0.039   0.001  -0.435   0.014   0.001  -0.025
 -0.000   0.000  -0.000   0.000  -0.000   0.000   0.045  -0.023   6.249  -0.023  -0.000  -0.029   0.014  -4.027   0.014   0.000
  0.000  -0.000  -0.000  -0.000   0.000  -0.000  -0.001  -0.001  -0.023   0.732  -0.039   0.001   0.001   0.014  -0.435   0.025
 -0.000   0.000   0.000   0.000  -0.000   0.000  -0.000   0.039  -0.000  -0.039   6.249   0.000  -0.025   0.000   0.025  -4.027
  0.000  -0.000   0.000  -0.000  -0.000   0.000  -0.435   0.001  -0.029   0.001   0.000   0.158  -0.002   0.020  -0.002  -0.000
  0.000  -0.000  -0.000   0.000   0.000  -0.000   0.001  -0.435   0.014   0.001  -0.025  -0.002   0.158  -0.010  -0.002   0.017
  0.000   0.000   0.000  -0.000   0.000  -0.000  -0.029   0.014  -4.027   0.014   0.000   0.020  -0.010   2.732  -0.010  -0.000
 -0.000   0.000   0.000   0.000  -0.000   0.000   0.001   0.001   0.014  -0.435   0.025  -0.002  -0.002  -0.010   0.158  -0.017
 -0.000  -0.000  -0.000   0.000  -0.000  -0.000   0.000  -0.025   0.000   0.025  -4.027  -0.000   0.017  -0.000  -0.017   2.732
  0.000   0.000  -0.000   0.000  -0.000   0.000   0.006   0.006  -0.000   0.006  -0.000  -0.002  -0.002   0.000  -0.002   0.000
 -0.000  -0.000   0.000  -0.000   0.000   0.000  -0.002  -0.002   0.000  -0.002   0.000  -0.000  -0.000  -0.000  -0.000  -0.000


------------------------ aborting loop because EDIFF is reached ----------------------------------------


 


 total charge     
 
# of ion       s       p       d       tot
------------------------------------------
    1        0.193   6.180   7.973  14.346
    2        0.193   6.180   7.973  14.346
    3        1.548   3.496   0.000   5.044
    4        1.548   3.496   0.000   5.044
--------------------------------------------------
tot          3.483  19.352  15.945  38.780
 


 magnetization (x)
 
# of ion       s       p       d       tot
------------------------------------------
    1        0.000   0.000  -0.000  -0.000
    2        0.000   0.000  -0.000  -0.000
    3        0.000   0.000   0.000   0.000
    4       -0.000  -0.000   0.000  -0.000
--------------------------------------------------
tot         -0.000  -0.000  -0.000  -0.000
 


 magnetization (y)
 
# of ion       s       p       d       tot
------------------------------------------
    1        0.000   0.000   0.000   0.000
    2        0.000   0.000  -0.000  -0.000
    3       -0.000  -0.000   0.000  -0.000
    4        0.000   0.000   0.000   0.000
--------------------------------------------------
tot         -0.000  -0.000   0.000  -0.000
 


 magnetization (z)
 
# of ion       s       p       d       tot
------------------------------------------
    1        0.006  -0.004   1.615   1.617
    2       -0.006   0.004  -1.615  -1.617
    3       -0.000   0.000   0.000   0.000
    4       -0.000   0.000   0.000   0.000
--------------------------------------------------
tot         -0.000   0.000  -0.000   0.000
 
    CHARGE:  cpu time    0.0259: real time    0.0259
    FORLOC:  cpu time    0.0010: real time    0.0010
    FORNL :  cpu time    0.0317: real time    0.0317
    STRESS:  cpu time    0.0890: real time    0.0890
    FORCOR:  cpu time    0.0269: real time    0.0269
    FORHAR:  cpu time    0.0031: real time    0.0031
    MIXING:  cpu time    0.0027: real time    0.0027
    OFIELD:  cpu time    0.0000: real time    0.0000

  FORCE on cell =-STRESS in cart. coord.  units (eV):
  Direction    XX          YY          ZZ          XY          YZ          ZX
  --------------------------------------------------------------------------------------
  Alpha Z   311.81991   311.81991   311.81991
  Ewald   -1781.85627 -1781.85627 -1781.85627     0.00000    -0.00000     0.00000
  Hartree   728.00125   728.00120   728.00121    -0.16310    -0.16307    -0.16305
  E(xc)    -298.16204  -298.16203  -298.16204    -0.00082    -0.00082    -0.00082
  Local     189.67954   189.67966   189.67959     0.33488     0.33485     0.33482
  n-local  -231.66834  -231.66836  -231.66838    -0.09769    -0.09775    -0.09781
  augment   370.08241   370.08239   370.08238     0.08766     0.08772     0.08773
  Kinetic   712.97205   712.97210   712.97210    -1.20686    -1.20682    -1.20675
  Fock        0.00000     0.00000     0.00000     0.00000     0.00000     0.00000
  -------------------------------------------------------------------------------------
  Total       0.86852     0.86860     0.86851    -1.04592    -1.04589    -1.04587
  in kB      38.38074    38.38438    38.38029   -46.22024   -46.21871   -46.21794
  external pressure =       38.38 kB  Pullay stress =        0.00 kB


 VOLUME and BASIS-vectors are now :
 -----------------------------------------------------------------------------
  energy-cutoff  :      450.00
  volume of cell :       36.26
      direct lattice vectors                 reciprocal lattice vectors
     4.170000000  2.085000000  2.085000000     0.359712230 -0.119904077 -0.119904077
     2.085000000  4.170000000  2.085000000    -0.119904077  0.359712230 -0.119904077
     2.085000000  2.085000000  4.170000000    -0.119904077 -0.119904077  0.359712230

  length of vectors
     5.107186114  5.107186114  5.107186114     0.397676833  0.397676833  0.397676833


 FORCES acting on ions
    electron-ion (+dipol)            ewald-force                    non-local-force                 convergence-correction
 -----------------------------------------------------------------------------------------------
   -.272E-03 -.420E-03 -.282E-03   -.227E-12 -.853E-13 -.114E-12   -.316E-04 -.198E-03 -.123E-03   0.254E-03 0.585E-03 0.378E-03
   0.385E-03 0.316E-03 0.310E-03   -.284E-13 0.853E-13 0.568E-13   0.155E-03 0.719E-04 0.163E-03   -.497E-03 -.338E-03 -.447E-03
   -.980E-04 0.688E-04 -.131E-04   0.996E-13 -.131E-13 0.169E-13   -.100E-04 -.493E-04 0.752E-05   0.830E-04 -.276E-04 0.412E-04
   0.684E-04 0.444E-04 -.387E-04   0.127E-12 0.134E-13 0.426E-13   -.745E-04 0.507E-04 0.762E-04   -.937E-04 -.699E-04 0.490E-04
 -----------------------------------------------------------------------------------------------
   0.838E-04 0.988E-05 -.237E-04   -.293E-13 0.280E-15 0.262E-14   0.386E-04 -.125E-03 0.124E-03   -.254E-03 0.149E-03 0.216E-04
 
 
 POSITION                                       TOTAL-FORCE (eV/Angst)
 -----------------------------------------------------------------------------------
      0.00000      0.00000      0.00000        -0.000017     -0.000042     -0.000057
      4.17000      4.17000      4.17000         0.000076      0.000042     -0.000004
      2.08500      2.08500      2.08500         0.000008     -0.000017      0.000005
      6.25500      6.25500      6.25500        -0.000067      0.000017      0.000056
 -----------------------------------------------------------------------------------
    total drift:                               -0.000132      0.000034      0.000121


--------------------------------------------------------------------------------------------------------



  FREE ENERGIE OF THE ION-ELECTRON SYSTEM (eV)
  ---------------------------------------------------
  free  energy   TOTEN  =       -19.07477583 eV

  energy  without entropy=      -19.07477583  energy(sigma->0) =      -19.07477583
 


--------------------------------------------------------------------------------------------------------


    POTLOK:  cpu time    0.0389: real time    0.0389


--------------------------------------------------------------------------------------------------------


 writing wavefunctions
     LOOP+:  cpu time    7.7228: real time    7.7507
    4ORBIT:  cpu time    0.0000: real time    0.0000
 


 orbital moment (x)
 
 # of ion     p       d       tot
 ----------------------------------------
  1        -0.000   0.099   0.099
  2         0.000  -0.099  -0.099
  3        -0.000   0.000  -0.000
  4         0.000   0.000   0.000
 ----------------------------------------
            0.000  -0.000  -0.000
 


 orbital moment (y)
 
 # of ion     p       d       tot
 ----------------------------------------
  1        -0.000   0.099   0.099
  2         0.000  -0.099  -0.099
  3         0.000   0.000   0.000
  4        -0.000   0.000  -0.000
 ----------------------------------------
           -0.000   0.000   0.000
 


 orbital moment (z)
 
 # of ion     p       d       tot
 ----------------------------------------
  1        -0.000   0.099   0.099
  2         0.000  -0.099  -0.099
  3         0.000   0.000   0.000
  4        -0.000   0.000  -0.000
 ----------------------------------------
            0.000   0.000   0.000

 Spin-Orbit-Coupling matrix elements

 Ion:    1  E_soc:     -0.0666482
 l=   1
     0.0000000    -0.0073059    -0.0073059
    -0.0073059     0.0000000    -0.0073059
    -0.0073059    -0.0073059     0.0000000
 l=   2
     0.0000000    -0.0001315     0.0000000    -0.0001315    -0.0036707
    -0.0001315     0.0000000    -0.0027530    -0.0001315    -0.0009176
     0.0000000    -0.0027530     0.0000000    -0.0027532     0.0000000
    -0.0001315    -0.0001315    -0.0027532     0.0000000    -0.0009176
    -0.0036707    -0.0009176     0.0000000    -0.0009176     0.0000000
 l=   3
     0.0000000     0.0000000     0.0000000     0.0000000     0.0000000     0.0000000     0.0000000
     0.0000000     0.0000000     0.0000000     0.0000000     0.0000000     0.0000000     0.0000000
     0.0000000     0.0000000     0.0000000     0.0000000     0.0000000     0.0000000     0.0000000
     0.0000000     0.0000000     0.0000000     0.0000000     0.0000000     0.0000000     0.0000000
     0.0000000     0.0000000     0.0000000     0.0000000     0.0000000     0.0000000     0.0000000
     0.0000000     0.0000000     0.0000000     0.0000000     0.0000000     0.0000000     0.0000000
     0.0000000     0.0000000     0.0000000     0.0000000     0.0000000     0.0000000     0.0000000

 Ion:    2  E_soc:     -0.0666483
 l=   1
     0.0000000    -0.0073059    -0.0073059
    -0.0073059     0.0000000    -0.0073058
    -0.0073059    -0.0073058     0.0000000
 l=   2
     0.0000000    -0.0001315     0.0000000    -0.0001314    -0.0036707
    -0.0001315     0.0000000    -0.0027531    -0.0001314    -0.0009177
     0.0000000    -0.0027531     0.0000000    -0.0027531     0.0000000
    -0.0001314    -0.0001314    -0.0027531     0.0000000    -0.0009176
    -0.0036707    -0.0009177     0.0000000    -0.0009176     0.0000000
 l=   3
     0.0000000     0.0000000     0.0000000     0.0000000     0.0000000     0.0000000     0.0000000
     0.0000000     0.0000000     0.0000000     0.0000000     0.0000000     0.0000000     0.0000000
     0.0000000     0.0000000     0.0000000     0.0000000     0.0000000     0.0000000     0.0000000
     0.0000000     0.0000000     0.0000000     0.0000000     0.0000000     0.0000000     0.0000000
     0.0000000     0.0000000     0.0000000     0.0000000     0.0000000     0.0000000     0.0000000
     0.0000000     0.0000000     0.0000000     0.0000000     0.0000000     0.0000000     0.0000000
     0.0000000     0.0000000     0.0000000     0.0000000     0.0000000     0.0000000     0.0000000

 Ion:    3  E_soc:      0.0000267
 l=   1
     0.0000000     0.0000044     0.0000044
     0.0000044     0.0000000     0.0000045
     0.0000044     0.0000045     0.0000000
 l=   2
     0.0000000     0.0000000     0.0000000     0.0000000     0.0000000
     0.0000000     0.0000000     0.0000000     0.0000000     0.0000000
     0.0000000     0.0000000     0.0000000     0.0000000     0.0000000
     0.0000000     0.0000000     0.0000000     0.0000000     0.0000000
     0.0000000     0.0000000     0.0000000     0.0000000     0.0000000
 l=   3
     0.0000000     0.0000000     0.0000000     0.0000000     0.0000000     0.0000000     0.0000000
     0.0000000     0.0000000     0.0000000     0.0000000     0.0000000     0.0000000     0.0000000
     0.0000000     0.0000000     0.0000000     0.0000000     0.0000000     0.0000000     0.0000000
     0.0000000     0.0000000     0.0000000     0.0000000     0.0000000     0.0000000     0.0000000
     0.0000000     0.0000000     0.0000000     0.0000000     0.0000000     0.0000000     0.0000000
     0.0000000     0.0000000     0.0000000     0.0000000     0.0000000     0.0000000     0.0000000
     0.0000000     0.0000000     0.0000000     0.0000000     0.0000000     0.0000000     0.0000000

 Ion:    4  E_soc:      0.0000267
 l=   1
     0.0000000     0.0000044     0.0000044
     0.0000044     0.0000000     0.0000044
     0.0000044     0.0000044     0.0000000
 l=   2
     0.0000000     0.0000000     0.0000000     0.0000000     0.0000000
     0.0000000     0.0000000     0.0000000     0.0000000     0.0000000
     0.0000000     0.0000000     0.0000000     0.0000000     0.0000000
     0.0000000     0.0000000     0.0000000     0.0000000     0.0000000
     0.0000000     0.0000000     0.0000000     0.0000000     0.0000000
 l=   3
     0.0000000     0.0000000     0.0000000     0.0000000     0.0000000     0.0000000     0.0000000
     0.0000000     0.0000000     0.0000000     0.0000000     0.0000000     0.0000000     0.0000000
     0.0000000     0.0000000     0.0000000     0.0000000     0.0000000     0.0000000     0.0000000
     0.0000000     0.0000000     0.0000000     0.0000000     0.0000000     0.0000000     0.0000000
     0.0000000     0.0000000     0.0000000     0.0000000     0.0000000     0.0000000     0.0000000
     0.0000000     0.0000000     0.0000000     0.0000000     0.0000000     0.0000000     0.0000000
     0.0000000     0.0000000     0.0000000     0.0000000     0.0000000     0.0000000     0.0000000
 


 total charge     
 
# of ion       s       p       d       tot
------------------------------------------
    1        0.193   6.180   7.973  14.346
    2        0.193   6.180   7.973  14.346
    3        1.548   3.496   0.000   5.044
    4        1.548   3.496   0.000   5.044
--------------------------------------------------
tot          3.483  19.352  15.945  38.780
 


 magnetization (x)
 
# of ion       s       p       d       tot
------------------------------------------
    1        0.000   0.000  -0.000  -0.000
    2        0.000   0.000  -0.000  -0.000
    3        0.000   0.000   0.000   0.000
    4       -0.000  -0.000   0.000  -0.000
--------------------------------------------------
tot         -0.000  -0.000  -0.000  -0.000
 


 magnetization (y)
 
# of ion       s       p       d       tot
------------------------------------------
    1        0.000   0.000   0.000   0.000
    2        0.000   0.000  -0.000  -0.000
    3       -0.000  -0.000   0.000  -0.000
    4        0.000   0.000   0.000   0.000
--------------------------------------------------
tot         -0.000  -0.000   0.000  -0.000
 


 magnetization (z)
 
# of ion       s       p       d       tot
------------------------------------------
    1        0.006  -0.004   1.615   1.617
    2       -0.006   0.004  -1.615  -1.617
    3       -0.000   0.000   0.000   0.000
    4       -0.000   0.000   0.000   0.000
--------------------------------------------------
tot         -0.000   0.000  -0.000   0.000
 
 BZINTS: Fermi energy:  5.805152; 44.000000 electrons
         Band energy:-650.875179;  BLOECHL correction:  0.000000
 BZINTS: Fermi energy:  5.805152; 44.000000 electrons
         Band energy:-650.875179;  BLOECHL correction:  0.000000
 BZINTS: Fermi energy:  5.805152; 44.000000 electrons
         Band energy:-650.875179;  BLOECHL correction:  0.000000
 BZINTS: Fermi energy:  5.805152; 44.000000 electrons
         Band energy:-650.875179;  BLOECHL correction:  0.000000

 total amount of memory used by VASP MPI-rank0    39886. kBytes
=======================================================================

   base      :      30000. kBytes
   nonl-proj :       1932. kBytes
   fftplans  :        985. kBytes
   grid      :       5820. kBytes
   one-center:        248. kBytes
   wavefun   :        901. kBytes
 
  
  
 General timing and accounting informations for this job:
 ========================================================
  
                  Total CPU time used (sec):        8.941
                            User time (sec):        8.828
                          System time (sec):        0.113
                         Elapsed time (sec):        9.134
  
                   Maximum memory used (kb):       88568.
                   Average memory used (kb):           0.
  
                          Minor page faults:        25971
                          Major page faults:            0
                 Voluntary context switches:          643
