 vasp.5.2.12 11Nov11 gamma-only                                                 
  
 executed on             LinuxIFC date 2020.08.20  16:44:52
 running on   16 nodes
 distr:  one band on    4 nodes,    4 groups


--------------------------------------------------------------------------------------------------------


 INCAR:
 POTCAR:    PAW_PBE O 08Apr2002                   
 POTCAR:    PAW_PBE H 15Jun2001                   
 POTCAR:    PAW_PBE O 08Apr2002                   
   VRHFIN =O: s2p4                                                              
   LEXCH  = PE                                                                  
   EATOM  =   432.3788 eV,   31.7789 Ry                                         
                                                                                
   TITEL  = PAW_PBE O 08Apr2002                                                 
   LULTRA =        F    use ultrasoft PP ?                                      
   IUNSCR =        1    unscreen: 0-lin 1-nonlin 2-no                           
   RPACOR =    1.200    partial core radius                                     
   POMASS =   16.000; ZVAL   =    6.000    mass and valenz                      
   RCORE  =    1.520    outmost cutoff radius                                   
   RWIGS  =    1.550; RWIGS  =    0.820    wigner-seitz radius (au A)           
   ENMAX  =  400.000; ENMIN  =  300.000 eV                                      
   ICORE  =        2    local potential                                         
   LCOR   =        T    correct aug charges                                     
   LPAW   =        T    paw PP                                                  
   EAUG   =  605.392                                                            
   DEXC   =    0.000                                                            
   RMAX   =    1.553    core radius for proj-oper                               
   RAUG   =    1.300    factor for augmentation sphere                          
   RDEP   =    1.550    radius for radial grids                                 
   RDEPT  =    1.329    core radius for aug-charge                              
                                                                                
   Atomic configuration                                                         
    4 entries                                                                   
     n  l   j            E        occ.                                          
     1  0  0.50      -514.6923   2.0000                                         
     2  0  0.50       -23.9615   2.0000                                         
     2  1  0.50        -9.0305   4.0000                                         
     3  2  1.50        -9.5241   0.0000                                         
   Description                                                                  
     l       E           TYP  RCUT    TYP  RCUT                                 
     0    -23.9615318     23  1.200                                             
     0     -9.5240782     23  1.200                                             
     1     -9.0304911     23  1.520                                             
     1      8.1634956     23  1.520                                             
     2     -9.5240782      7  1.500                                             
  local pseudopotential read in
  partial core-charges read in
  partial kinetic energy density read in
  kinetic energy density of atom read in
  atomic valenz-charges read in
  non local Contribution for L=           0  read in
    real space projection operators read in
  non local Contribution for L=           0  read in
    real space projection operators read in
  non local Contribution for L=           1  read in
    real space projection operators read in
  non local Contribution for L=           1  read in
    real space projection operators read in
    PAW grid and wavefunctions read in
 
   number of l-projection  operators is LMAX  =           4
   number of lm-projection operators is LMMAX =           8
 
 POTCAR:    PAW_PBE H 15Jun2001                   
   VRHFIN =H: ultrasoft test                                                    
   LEXCH  = PE                                                                  
   EATOM  =    12.4884 eV,    0.9179 Ry                                         
                                                                                
   TITEL  = PAW_PBE H 15Jun2001                                                 
   LULTRA =        F    use ultrasoft PP ?                                      
   IUNSCR =        0    unscreen: 0-lin 1-nonlin 2-no                           
   RPACOR =    0.000    partial core radius                                     
   POMASS =    1.000; ZVAL   =    1.000    mass and valenz                      
   RCORE  =    1.100    outmost cutoff radius                                   
   RWIGS  =    0.700; RWIGS  =    0.370    wigner-seitz radius (au A)           
   ENMAX  =  250.000; ENMIN  =  200.000 eV                                      
   RCLOC  =    0.701    cutoff for local pot                                    
   LCOR   =        T    correct aug charges                                     
   LPAW   =        T    paw PP                                                  
   EAUG   =  400.000                                                            
   RMAX   =    1.123    core radius for proj-oper                               
   RAUG   =    1.200    factor for augmentation sphere                          
   RDEP   =    1.112    radius for radial grids                                 
   RDEPT  =    0.926    core radius for aug-charge                              
                                                                                
   Atomic configuration                                                         
    2 entries                                                                   
     n  l   j            E        occ.                                          
     1  0  0.50        -6.4927   1.0000                                         
     2  1  0.50        -3.4015   0.0000                                         
   Description                                                                  
     l       E           TYP  RCUT    TYP  RCUT                                 
     0     -6.4927494     23  1.100                                             
     0      6.8029130     23  1.100                                             
     1     -4.0817478     23  1.100                                             
  local pseudopotential read in
  atomic valenz-charges read in
  non local Contribution for L=           0  read in
    real space projection operators read in
  non local Contribution for L=           0  read in
    real space projection operators read in
  non local Contribution for L=           1  read in
    real space projection operators read in
    PAW grid and wavefunctions read in
 
   number of l-projection  operators is LMAX  =           3
   number of lm-projection operators is LMMAX =           5
 

 ----------------------------------------------------------------------------- 
|                                                                             |
|  ADVICE TO THIS USER RUNNING 'VASP/VAMP'   (HEAR YOUR MASTER'S VOICE ...):  |
|                                                                             |
|      You have a (more or less) 'small supercell' and for smaller cells      |
|      it is recommended  to use the reciprocal-space projection scheme!      |
|      The real space optimization is not  efficient for small cells and it   |
|      is also less accurate ...                                              |
|      Therefore set LREAL=.FALSE. in the  INCAR file                         |
|                                                                             |
 ----------------------------------------------------------------------------- 

 Optimization of the real space projectors (new method)

 maximal supplied QI-value         = 24.76
 optimisation between [QCUT,QGAM] = [ 10.15, 20.30] = [ 28.85,115.39] Ry 
 Optimized for a Real-space Cutoff    1.38 Angstroem

   l    n(q)    QCUT    max X(q) W(low)/X(q) W(high)/X(q)  e(spline) 
   0      8    10.150    20.381    0.22E-03    0.32E-03    0.29E-06
   0      8    10.150    15.268    0.23E-03    0.35E-03    0.30E-06
   1      8    10.150     5.964    0.46E-03    0.53E-03    0.21E-06
   1      8    10.150     5.382    0.38E-03    0.45E-03    0.19E-06
 Optimization of the real space projectors (new method)

 maximal supplied QI-value         = 34.20
 optimisation between [QCUT,QGAM] = [  9.92, 20.18] = [ 27.55,114.04] Ry 
 Optimized for a Real-space Cutoff    1.26 Angstroem

   l    n(q)    QCUT    max X(q) W(low)/X(q) W(high)/X(q)  e(spline) 
   0      8     9.919    19.460    0.50E-03    0.23E-03    0.29E-06
   0      8     9.919    12.209    0.48E-03    0.23E-03    0.28E-06
   1      7     9.919     4.655    0.17E-03    0.75E-03    0.30E-06
  PAW_PBE O 08Apr2002                   :
 energy of atom  1       EATOM= -432.3788
 kinetic energy error for atom=    0.1156 (will be added to EATOM!!)
  PAW_PBE H 15Jun2001                   :
 energy of atom  2       EATOM=  -12.4884
 kinetic energy error for atom=    0.0098 (will be added to EATOM!!)
 
 
 POSCAR: H2O _2                                  
  positions in cartesian coordinates
  No initial velocities read in
 exchange correlation table for  LEXCH =        8
   RHO(1)=    0.500       N(1)  =     2000
   RHO(2)=  100.500       N(2)  =     4000
 


--------------------------------------------------------------------------------------------------------


 ion  position               nearest neighbor table
   1  0.000  0.000  0.000-   2 0.97   3 0.97
   2  0.075  0.904  0.000-   1 0.97
   3  0.075  0.096  0.000-   1 0.97
 
  LATTYP: Found a simple cubic cell.
 ALAT       =     8.0000000000
  
  Lattice vectors:
  
 A1 = (   8.0000000000,   0.0000000000,   0.0000000000)
 A2 = (   0.0000000000,   8.0000000000,   0.0000000000)
 A3 = (   0.0000000000,   0.0000000000,   8.0000000000)
 Subroutine PRICEL returns:
 Original cell was already a primitive cell.
 

Analysis of symmetry for initial positions (statically):

 Routine SETGRP: Setting up the symmetry group for a 
 simple cubic supercell.


 Subroutine GETGRP returns: Found  4 space group operations
 (whereof  4 operations were pure point group operations)
 out of a pool of 48 trial point group operations.


The static configuration has the point symmetry C_2v.

Analysis of symmetry for dynamics (positions and initial velocities):

 Subroutine DYNSYM returns: Found  4 space group operations
 (whereof  4 operations were pure point group operations)
 out of a pool of  4 trial space group operations
 (whereof  4 operations were pure point group operations)
 and found also     1 'primitive' translations


The dynamic configuration has the point symmetry C_2v.
 
 
 KPOINTS: dummy                                   

Automatic generation of k-mesh.
 
 Subroutine IBZKPT returns following result:
 ===========================================
 
 Found      1 irreducible k-points:
 
 Following reciprocal coordinates:
            Coordinates               Weight
  0.000000  0.000000  0.000000      1.000000
 
 Following cartesian coordinates:
            Coordinates               Weight
  0.000000  0.000000  0.000000      1.000000
 


--------------------------------------------------------------------------------------------------------




 Dimension of arrays:
   k-points           NKPTS =      1   k-points in BZ     NKDIM =      1   number of bands    NBANDS=      8
   number of dos      NEDOS =  10000   number of ions     NIONS =      3
   non local maximal  LDIM  =      4   non local SUM 2l+1 LMDIM =      8
   total plane-waves  NPLWV =  64000
   max r-space proj   IRMAX =   1427   max aug-charges    IRDMAX=   1821
   dimension x,y,z NGX =    40 NGY =   40 NGZ =   40
   dimension x,y,z NGXF=    80 NGYF=   80 NGZF=   80
   support grid    NGXF=    80 NGYF=   80 NGZF=   80
   ions per type =               1   2
 NGX,Y,Z   is equivalent  to a cutoff of   8.31,  8.31,  8.31 a.u.
 NGXF,Y,Z  is equivalent  to a cutoff of  16.62, 16.62, 16.62 a.u.


 I would recommend the setting:
   dimension x,y,z NGX =    39 NGY =   39 NGZ =   39
 SYSTEM =  /public/export/chenlj/github/wavecar_rs 
 POSCAR =  H2O _2                                  

 Startparameter for this run:
   NWRITE =      2    write-flag & timer
   PREC   = normal    normal or accurate (medium, high low for compatibility)
   ISTART =      0    job   : 0-new  1-cont  2-samecut
   ICHARG =      2    charge: 1-file 2-atom 10-const
   ISPIN  =      1    spin polarized calculation?
   LNONCOLLINEAR =      F non collinear calculations
   LSORBIT =      F    spin-orbit coupling
   INIWAV =      1    electr: 0-lowe 1-rand  2-diag
   LASPH  =      F    aspherical Exc in radial PAW
   METAGGA=      F    non-selfconsistent MetaGGA calc.

 Electronic Relaxation 1
   ENCUT  =  400.0 eV  29.40 Ry    5.42 a.u.  13.05 13.05 13.05*2*pi/ulx,y,z
   ENINI  =  400.0     initial cutoff
   ENAUG  =  605.4 eV  augmentation charge cutoff
   NELM   =    300;   NELMIN=  4; NELMDL= -5     # of ELM steps 
   EDIFF  = 0.1E-03   stopping-criterion for ELM
   LREAL  =      T    real-space projection
   NLSPLINE    = F    spline interpolate recip. space projectors
   LCOMPAT=      F    compatible to vasp.4.4
   GGA_COMPAT  = T    GGA compatible to vasp.4.4-vasp.4.6
   LMAXPAW     = -100 max onsite density
   LMAXMIX     =    2 max onsite mixed and CHGCAR
   VOSKOWN=      0    Vosko Wilk Nusair interpolation
   ROPT   =   -0.00050  -0.00050
 Ionic relaxation
   EDIFFG = -.2E-01   stopping-criterion for IOM
   NSW    =      0    number of steps for IOM
   NBLOCK =      1;   KBLOCK =      1    inner block; outer block 
   IBRION =     -1    ionic relax: 0-MD 1-quasi-New 2-CG
   NFREE  =      0    steps in history (QN), initial steepest desc. (CG)
   ISIF   =      2    stress and relaxation
   IWAVPR =     10    prediction:  0-non 1-charg 2-wave 3-comb
   ISYM   =      2    0-nonsym 1-usesym 2-fastsym
   LCORR  =      T    Harris-Foulkes like correction to forces

   POTIM  = 0.5000    time-step for ionic-motion
   TEIN   =    0.0    initial temperature
   TEBEG  =    0.0;   TEEND  =   0.0 temperature during run
   SMASS  =  -3.00    Nose mass-parameter (am)
   estimated Nose-frequenzy (Omega)   =  0.10E-29 period in steps =****** mass=  -0.146E-26a.u.
   SCALEE = 1.0000    scale energy and forces
   NPACO  =    256;   APACO  = 16.0  distance and # of slots for P.C.
   PSTRESS=    0.0 pullay stress

  Mass of Ions in am
   POMASS =  16.00  1.00
  Ionic Valenz
   ZVAL   =   6.00  1.00
  Atomic Wigner-Seitz radii
   RWIGS  =  -1.00 -1.00
  virtual crystal weights 
   VCA    =   1.00  1.00
   NELECT =       8.0000    total number of electrons
   NUPDOWN=      -1.0000    fix difference up-down

 DOS related values:
   EMIN   = -30.00;   EMAX   = 45.00  energy-range for DOS
   EFERMI =   0.00
   ISMEAR =     0;   SIGMA  =   0.05  broadening in eV -4-tet -1-fermi 0-gaus

 Electronic relaxation 2 (details)
   IALGO  =     38    algorithm
   LDIAG  =      T    sub-space diagonalisation (order eigenvalues)
   LSUBROT=      T    optimize rotation matrix (better conditioning)
   TURBO    =      0    0=normal 1=particle mesh
   IRESTART =      0    0=no restart 2=restart with 2 vectors
   NREBOOT  =      0    no. of reboots
   NMIN     =      0    reboot dimension
   EREF     =   0.00    reference energy to select bands
   IMIX   =      4    mixing-type and parameters
     AMIX     =   0.40;   BMIX     =  1.00
     AMIX_MAG =   1.60;   BMIX_MAG =  1.00
     AMIN     =   0.10
     WC   =   100.;   INIMIX=   1;  MIXPRE=   1

 Intra band minimization:
   WEIMIN = 0.0000     energy-eigenvalue tresh-hold
   EBREAK =  0.31E-05  absolut break condition
   DEPER  =   0.30     relativ break condition  

   TIME   =   0.40     timestep for ELM

  volume/ion in A,a.u.               =     170.67      1151.72
  Fermi-wavevector in a.u.,A,eV,Ry     =   0.409275  0.773417  2.279054  0.167506
  Thomas-Fermi vector in A             =   1.364147
 
 Write flags
   LWAVE  =      T    write WAVECAR
   LCHARG =      F    write CHGCAR
   LVTOT  =      F    write LOCPOT, total local potential
   LVHAR  =      F    write LOCPOT, Hartree potential only
   LELF   =      F    write electronic localiz. function (ELF)
   LORBIT =     11    0 simple, 1 ext, 2 COOP (PROOUT)


 Dipole corrections
   LMONO  =      F    monopole corrections only (constant potential shift)
   LDIPOL =      F    correct potential (dipole corrections)
   IDIPOL =      0    1-x, 2-y, 3-z, 4-all directions 
   EPSILON=  1.0000000 bulk dielectric constant

 Exchange correlation treatment:
   GGA     =    --    GGA type
   LEXCH   =     8    internal setting for exchange type
   VOSKOWN=      0    Vosko Wilk Nusair interpolation
   LHFCALC =     F    Hartree Fock is set to
   LHFONE  =     F    Hartree Fock one center treatment
   AEXX    =    0.0000 exact exchange contribution

 Linear response parameters
   LEPSILON=     F    determine dielectric tensor
   LRPA    =     F    only Hartree local field effects (RPA)
   LNABLA  =     F    use nabla operator in PAW spheres
   LVEL    =     F    velocity operator in full k-point grid
   LINTERFAST=   F  fast interpolation
   KINTER  =     0    interpolate to denser k-point grid
   CSHIFT  =0.1000    complex shift for real part using Kramers Kronig
   OMEGAMAX=  -1.0    maximum frequency
   RTIME   =    0.100 relaxation time in fs

 Orbital magnetization related:
   ORBITALMAG=     F  switch on orbital magnetization
   LCHIMAG   =     F  perturbation theory with respect to B field
   DQ        =  0.001000  dq finite difference perturbation B field



--------------------------------------------------------------------------------------------------------


 Static calculation
 charge density and potential will be updated during run
 non-spin polarized calculation
 Variant of blocked Davidson
 Davidson routine will perform the subspace rotation
 perform sub-space diagonalisation
    after iterative eigenvector-optimisation
 modified Broyden-mixing scheme, WC =      100.0
 initial mixing is a Kerker type mixing with AMIX =  0.4000 and BMIX =      1.0000
 Hartree-type preconditioning will be used
 using additional bands            4
 real space projection scheme for non local part
 use partial core corrections
 calculate Harris-corrections to forces 
   (improved forces if not selfconsistent)
 use gradient corrections 
 use of overlap-Matrix (Vanderbilt PP)
 Gauss-broadening in eV      SIGMA  =   0.05


--------------------------------------------------------------------------------------------------------


  energy-cutoff  :      400.00
  volume of cell :      512.00
      direct lattice vectors                 reciprocal lattice vectors
     8.000000000  0.000000000  0.000000000     0.125000000  0.000000000  0.000000000
     0.000000000  8.000000000  0.000000000     0.000000000  0.125000000  0.000000000
     0.000000000  0.000000000  8.000000000     0.000000000  0.000000000  0.125000000

  length of vectors
     8.000000000  8.000000000  8.000000000     0.125000000  0.125000000  0.125000000


 
 k-points in units of 2pi/SCALE and weight: dummy                                   
   0.00000000  0.00000000  0.00000000       1.000
 
 k-points in reciprocal lattice and weights: dummy                                   
   0.00000000  0.00000000  0.00000000       1.000
 
 position of ions in fractional coordinates (direct lattice) 
   0.00000000  0.00000000  0.00000000
   0.07451015  0.90403665  0.00000000
   0.07451015  0.09596335  0.00000000
 
 position of ions in cartesian coordinates  (Angst):
   0.00000000  0.00000000  0.00000000
   0.59608120  7.23229320  0.00000000
   0.59608120  0.76770680  0.00000000
 


--------------------------------------------------------------------------------------------------------


 use parallel FFT for wavefunctions z direction half grid
 k-point  1 :  0.00000.00000.0000  plane waves:    4658

 maximum and minimum number of plane-waves per node :      1167     1162

 maximum number of plane-waves:      4658
 maximum index in each direction: 
   IXMAX=   13   IYMAX=   13   IZMAX=   13
   IXMIN=  -13   IYMIN=  -13   IZMIN=    0

 WARNING: aliasing errors must be expected set NGX to  54 to avoid them
 WARNING: aliasing errors must be expected set NGY to  54 to avoid them
 WARNING: aliasing errors must be expected set NGZ to  54 to avoid them
 aliasing errors are usually negligible using standard VASP settings
 and one can safely disregard these warnings

 real space projection operators:
  total allocation   :        164.11 KBytes
  max/ min on nodes  :         42.14         39.38


 parallel 3D FFT for wavefunctions:
    minimum data exchange during FFTs selected (reduces bandwidth)
 parallel 3D FFT for charge:
    minimum data exchange during FFTs selected (reduces bandwidth)


 total amount of memory used by VASP on root node    34017. kBytes
========================================================================

   base      :      30000. kBytes
   nonlr-proj:         50. kBytes
   fftplans  :       1459. kBytes
   grid      :       2470. kBytes
   one-center:          1. kBytes
   wavefun   :         37. kBytes
 
 Broyden mixing: mesh for mixing (old mesh)
   NGX = 27   NGY = 27   NGZ = 27
  (NGX  = 80   NGY  = 80   NGZ  = 80)
  gives a total of  19683 points

 initial charge density was supplied:
 charge density of overlapping atoms calculated
 number of electron       8.0000000 magnetization 
 keeping initial charge density in first step


--------------------------------------------------------------------------------------------------------


 Maximum index for non-local projection operator          339
 Maximum index for augmentation-charges          169 (set IRDMAX)


--------------------------------------------------------------------------------------------------------


 First call to EWALD:  gamma=   0.222
 Maximum number of real-space cells 3x 3x 3
 Maximum number of reciprocal cells 3x 3x 3

    FEWALD:  cpu time    0.00: real time    0.00


----------------------------------------- Iteration    1(   1)  ---------------------------------------


    POTLOK:  cpu time    0.04: real time    0.04
    SETDIJ:  cpu time    0.00: real time    0.00
     EDDAV:  cpu time    0.01: real time    0.01
       DOS:  cpu time    0.00: real time    0.00
    --------------------------------------------
      LOOP:  cpu time    0.05: real time    0.07

 eigenvalue-minimisations  :    16
 total energy-change (2. order) : 0.6914372E+02  (-0.1679445E+03)
 number of electron       8.0000000 magnetization 
 augmentation part        8.0000000 magnetization 

 Free energy of the ion-electron system (eV)
  ---------------------------------------------------
  alpha Z        PSCENC =         0.43799080
  Ewald energy   TEWEN  =        24.54851968
  -1/2 Hartree   DENC   =      -385.76897612
  -exchange  EXHF       =         0.00000000
  -V(xc)+E(xc)   XCENC  =        32.18138799
  PAW double counting   =       350.81753176     -352.63395800
  entropy T*S    EENTRO =        -0.03698009
  eigenvalues    EBANDS =       -57.62226117
  atomic energy  EATOM  =       457.22046137
  ---------------------------------------------------
  free energy    TOTEN  =        69.14371623 eV

  energy without entropy =       69.18069632  energy(sigma->0) =       69.16220627


--------------------------------------------------------------------------------------------------------




----------------------------------------- Iteration    1(   2)  ---------------------------------------


     EDDAV:  cpu time    0.01: real time    0.01
       DOS:  cpu time    0.00: real time    0.00
    --------------------------------------------
      LOOP:  cpu time    0.01: real time    0.01

 eigenvalue-minimisations  :    32
 total energy-change (2. order) :-0.6469564E+02  (-0.6376727E+02)
 number of electron       8.0000000 magnetization 
 augmentation part        8.0000000 magnetization 

 Free energy of the ion-electron system (eV)
  ---------------------------------------------------
  alpha Z        PSCENC =         0.43799080
  Ewald energy   TEWEN  =        24.54851968
  -1/2 Hartree   DENC   =      -385.76897612
  -exchange  EXHF       =         0.00000000
  -V(xc)+E(xc)   XCENC  =        32.18138799
  PAW double counting   =       350.81753176     -352.63395800
  entropy T*S    EENTRO =        -0.00000000
  eigenvalues    EBANDS =      -122.35487827
  atomic energy  EATOM  =       457.22046137
  ---------------------------------------------------
  free energy    TOTEN  =         4.44807923 eV

  energy without entropy =        4.44807923  energy(sigma->0) =        4.44807923


--------------------------------------------------------------------------------------------------------




----------------------------------------- Iteration    1(   3)  ---------------------------------------


     EDDAV:  cpu time    0.01: real time    0.01
       DOS:  cpu time    0.00: real time    0.00
    --------------------------------------------
      LOOP:  cpu time    0.01: real time    0.01

 eigenvalue-minimisations  :    24
 total energy-change (2. order) :-0.2000561E+02  (-0.2000561E+02)
 number of electron       8.0000000 magnetization 
 augmentation part        8.0000000 magnetization 

 Free energy of the ion-electron system (eV)
  ---------------------------------------------------
  alpha Z        PSCENC =         0.43799080
  Ewald energy   TEWEN  =        24.54851968
  -1/2 Hartree   DENC   =      -385.76897612
  -exchange  EXHF       =         0.00000000
  -V(xc)+E(xc)   XCENC  =        32.18138799
  PAW double counting   =       350.81753176     -352.63395800
  entropy T*S    EENTRO =        -0.00000000
  eigenvalues    EBANDS =      -142.36048328
  atomic energy  EATOM  =       457.22046137
  ---------------------------------------------------
  free energy    TOTEN  =       -15.55752579 eV

  energy without entropy =      -15.55752579  energy(sigma->0) =      -15.55752579


--------------------------------------------------------------------------------------------------------




----------------------------------------- Iteration    1(   4)  ---------------------------------------


     EDDAV:  cpu time    0.01: real time    0.01
       DOS:  cpu time    0.00: real time    0.00
    --------------------------------------------
      LOOP:  cpu time    0.01: real time    0.01

 eigenvalue-minimisations  :    16
 total energy-change (2. order) :-0.6889124E+00  (-0.6889124E+00)
 number of electron       8.0000000 magnetization 
 augmentation part        8.0000000 magnetization 

 Free energy of the ion-electron system (eV)
  ---------------------------------------------------
  alpha Z        PSCENC =         0.43799080
  Ewald energy   TEWEN  =        24.54851968
  -1/2 Hartree   DENC   =      -385.76897612
  -exchange  EXHF       =         0.00000000
  -V(xc)+E(xc)   XCENC  =        32.18138799
  PAW double counting   =       350.81753176     -352.63395800
  entropy T*S    EENTRO =        -0.00000000
  eigenvalues    EBANDS =      -143.04939570
  atomic energy  EATOM  =       457.22046137
  ---------------------------------------------------
  free energy    TOTEN  =       -16.24643821 eV

  energy without entropy =      -16.24643821  energy(sigma->0) =      -16.24643821


--------------------------------------------------------------------------------------------------------




----------------------------------------- Iteration    1(   5)  ---------------------------------------


     EDDAV:  cpu time    0.01: real time    0.01
       DOS:  cpu time    0.00: real time    0.00
    CHARGE:  cpu time    0.01: real time    0.01
    MIXING:  cpu time    0.01: real time    0.01
    --------------------------------------------
      LOOP:  cpu time    0.03: real time    0.03

 eigenvalue-minimisations  :    24
 total energy-change (2. order) :-0.4020668E-02  (-0.4020667E-02)
 number of electron       8.0000142 magnetization 
 augmentation part        0.8297994 magnetization 

 Broyden mixing:
  rms(total) = 0.78790E+00    rms(broyden)= 0.78635E+00
  rms(prec ) = 0.11872E+01
  weight for this iteration     100.00

 Free energy of the ion-electron system (eV)
  ---------------------------------------------------
  alpha Z        PSCENC =         0.43799080
  Ewald energy   TEWEN  =        24.54851968
  -1/2 Hartree   DENC   =      -385.76897612
  -exchange  EXHF       =         0.00000000
  -V(xc)+E(xc)   XCENC  =        32.18138799
  PAW double counting   =       350.81753176     -352.63395800
  entropy T*S    EENTRO =        -0.00000000
  eigenvalues    EBANDS =      -143.05341637
  atomic energy  EATOM  =       457.22046137
  ---------------------------------------------------
  free energy    TOTEN  =       -16.25045888 eV

  energy without entropy =      -16.25045888  energy(sigma->0) =      -16.25045888


--------------------------------------------------------------------------------------------------------




----------------------------------------- Iteration    1(   6)  ---------------------------------------


    POTLOK:  cpu time    0.02: real time    0.02
    SETDIJ:  cpu time    0.00: real time    0.00
     EDDAV:  cpu time    0.01: real time    0.01
       DOS:  cpu time    0.00: real time    0.00
    CHARGE:  cpu time    0.01: real time    0.01
    MIXING:  cpu time    0.00: real time    0.00
    --------------------------------------------
      LOOP:  cpu time    0.04: real time    0.04

 eigenvalue-minimisations  :    16
 total energy-change (2. order) : 0.1861826E+01  (-0.9253080E+00)
 number of electron       8.0000121 magnetization 
 augmentation part        0.6960483 magnetization 

 Broyden mixing:
  rms(total) = 0.32532E+00    rms(broyden)= 0.32490E+00
  rms(prec ) = 0.41581E+00
  weight for this iteration     100.00

 eigenvalues of (default mixing * dielectric matrix)
  average eigenvalue GAMMA=   0.9263
  0.9263

 Free energy of the ion-electron system (eV)
  ---------------------------------------------------
  alpha Z        PSCENC =         0.43799080
  Ewald energy   TEWEN  =        24.54851968
  -1/2 Hartree   DENC   =      -409.64341001
  -exchange  EXHF       =         0.00000000
  -V(xc)+E(xc)   XCENC  =        33.51445837
  PAW double counting   =       450.40554313     -452.55773241
  entropy T*S    EENTRO =        -0.00000000
  eigenvalues    EBANDS =      -118.31446339
  atomic energy  EATOM  =       457.22046137
  ---------------------------------------------------
  free energy    TOTEN  =       -14.38863247 eV

  energy without entropy =      -14.38863247  energy(sigma->0) =      -14.38863247


--------------------------------------------------------------------------------------------------------




----------------------------------------- Iteration    1(   7)  ---------------------------------------


    POTLOK:  cpu time    0.02: real time    0.02
    SETDIJ:  cpu time    0.00: real time    0.00
     EDDAV:  cpu time    0.01: real time    0.01
       DOS:  cpu time    0.00: real time    0.00
    CHARGE:  cpu time    0.01: real time    0.01
    MIXING:  cpu time    0.00: real time    0.00
    --------------------------------------------
      LOOP:  cpu time    0.04: real time    0.04

 eigenvalue-minimisations  :    24
 total energy-change (2. order) : 0.1057012E+00  (-0.1353275E-01)
 number of electron       8.0000121 magnetization 
 augmentation part        0.6921631 magnetization 

 Broyden mixing:
  rms(total) = 0.19869E+00    rms(broyden)= 0.19867E+00
  rms(prec ) = 0.26010E+00
  weight for this iteration     100.00

 eigenvalues of (default mixing * dielectric matrix)
  average eigenvalue GAMMA=   1.7211
  1.0390  2.4032

 Free energy of the ion-electron system (eV)
  ---------------------------------------------------
  alpha Z        PSCENC =         0.43799080
  Ewald energy   TEWEN  =        24.54851968
  -1/2 Hartree   DENC   =      -413.33372888
  -exchange  EXHF       =         0.00000000
  -V(xc)+E(xc)   XCENC  =        33.70688319
  PAW double counting   =       497.83560021     -499.94991256
  entropy T*S    EENTRO =        -0.00000000
  eigenvalues    EBANDS =      -114.74874504
  atomic energy  EATOM  =       457.22046137
  ---------------------------------------------------
  free energy    TOTEN  =       -14.28293124 eV

  energy without entropy =      -14.28293124  energy(sigma->0) =      -14.28293124


--------------------------------------------------------------------------------------------------------




----------------------------------------- Iteration    1(   8)  ---------------------------------------


    POTLOK:  cpu time    0.02: real time    0.02
    SETDIJ:  cpu time    0.00: real time    0.00
     EDDAV:  cpu time    0.01: real time    0.01
       DOS:  cpu time    0.00: real time    0.00
    CHARGE:  cpu time    0.01: real time    0.01
    MIXING:  cpu time    0.00: real time    0.00
    --------------------------------------------
      LOOP:  cpu time    0.04: real time    0.04

 eigenvalue-minimisations  :    24
 total energy-change (2. order) : 0.7861785E-01  (-0.6735332E-02)
 number of electron       8.0000120 magnetization 
 augmentation part        0.6902664 magnetization 

 Broyden mixing:
  rms(total) = 0.20490E-01    rms(broyden)= 0.20481E-01
  rms(prec ) = 0.51675E-01
  weight for this iteration     100.00

 eigenvalues of (default mixing * dielectric matrix)
  average eigenvalue GAMMA=   1.4787
  2.3909  0.9800  1.0652

 Free energy of the ion-electron system (eV)
  ---------------------------------------------------
  alpha Z        PSCENC =         0.43799080
  Ewald energy   TEWEN  =        24.54851968
  -1/2 Hartree   DENC   =      -418.59974919
  -exchange  EXHF       =         0.00000000
  -V(xc)+E(xc)   XCENC  =        34.00126924
  PAW double counting   =       570.73941643     -572.80393282
  entropy T*S    EENTRO =        -0.00000000
  eigenvalues    EBANDS =      -109.74828889
  atomic energy  EATOM  =       457.22046137
  ---------------------------------------------------
  free energy    TOTEN  =       -14.20431339 eV

  energy without entropy =      -14.20431339  energy(sigma->0) =      -14.20431339


--------------------------------------------------------------------------------------------------------




----------------------------------------- Iteration    1(   9)  ---------------------------------------


    POTLOK:  cpu time    0.02: real time    0.02
    SETDIJ:  cpu time    0.00: real time    0.00
     EDDAV:  cpu time    0.01: real time    0.01
       DOS:  cpu time    0.00: real time    0.00
    CHARGE:  cpu time    0.01: real time    0.01
    MIXING:  cpu time    0.00: real time    0.00
    --------------------------------------------
      LOOP:  cpu time    0.04: real time    0.04

 eigenvalue-minimisations  :    24
 total energy-change (2. order) :-0.3530414E-02  (-0.3491444E-03)
 number of electron       8.0000120 magnetization 
 augmentation part        0.6880392 magnetization 

 Broyden mixing:
  rms(total) = 0.13999E-01    rms(broyden)= 0.13996E-01
  rms(prec ) = 0.36719E-01
  weight for this iteration     100.00

 eigenvalues of (default mixing * dielectric matrix)
  average eigenvalue GAMMA=   1.9227
  0.9960  0.9960  2.5175  3.1813

 Free energy of the ion-electron system (eV)
  ---------------------------------------------------
  alpha Z        PSCENC =         0.43799080
  Ewald energy   TEWEN  =        24.54851968
  -1/2 Hartree   DENC   =      -419.26394203
  -exchange  EXHF       =         0.00000000
  -V(xc)+E(xc)   XCENC  =        34.02186191
  PAW double counting   =       566.68672539     -568.75229858
  entropy T*S    EENTRO =        -0.00000000
  eigenvalues    EBANDS =      -109.10716234
  atomic energy  EATOM  =       457.22046137
  ---------------------------------------------------
  free energy    TOTEN  =       -14.20784380 eV

  energy without entropy =      -14.20784380  energy(sigma->0) =      -14.20784380


--------------------------------------------------------------------------------------------------------




----------------------------------------- Iteration    1(  10)  ---------------------------------------


    POTLOK:  cpu time    0.02: real time    0.02
    SETDIJ:  cpu time    0.00: real time    0.00
     EDDAV:  cpu time    0.01: real time    0.01
       DOS:  cpu time    0.00: real time    0.00
    CHARGE:  cpu time    0.01: real time    0.01
    MIXING:  cpu time    0.00: real time    0.00
    --------------------------------------------
      LOOP:  cpu time    0.03: real time    0.04

 eigenvalue-minimisations  :    16
 total energy-change (2. order) :-0.8912986E-02  (-0.4081978E-03)
 number of electron       8.0000120 magnetization 
 augmentation part        0.6885787 magnetization 

 Broyden mixing:
  rms(total) = 0.68412E-02    rms(broyden)= 0.68371E-02
  rms(prec ) = 0.13756E-01
  weight for this iteration     100.00

 eigenvalues of (default mixing * dielectric matrix)
  average eigenvalue GAMMA=   2.0234
  3.4149  1.0028  1.0028  2.3482  2.3482

 Free energy of the ion-electron system (eV)
  ---------------------------------------------------
  alpha Z        PSCENC =         0.43799080
  Ewald energy   TEWEN  =        24.54851968
  -1/2 Hartree   DENC   =      -419.92887903
  -exchange  EXHF       =         0.00000000
  -V(xc)+E(xc)   XCENC  =        34.02518017
  PAW double counting   =       557.48978620     -559.54742821
  entropy T*S    EENTRO =        -0.00000000
  eigenvalues    EBANDS =      -108.46238776
  atomic energy  EATOM  =       457.22046137
  ---------------------------------------------------
  free energy    TOTEN  =       -14.21675679 eV

  energy without entropy =      -14.21675679  energy(sigma->0) =      -14.21675679


--------------------------------------------------------------------------------------------------------




----------------------------------------- Iteration    1(  11)  ---------------------------------------


    POTLOK:  cpu time    0.02: real time    0.02
    SETDIJ:  cpu time    0.00: real time    0.00
     EDDAV:  cpu time    0.01: real time    0.01
       DOS:  cpu time    0.00: real time    0.00
    CHARGE:  cpu time    0.01: real time    0.01
    MIXING:  cpu time    0.00: real time    0.00
    --------------------------------------------
      LOOP:  cpu time    0.03: real time    0.04

 eigenvalue-minimisations  :    16
 total energy-change (2. order) :-0.7255545E-02  (-0.5276640E-03)
 number of electron       8.0000120 magnetization 
 augmentation part        0.6859765 magnetization 

 Broyden mixing:
  rms(total) = 0.10313E-01    rms(broyden)= 0.10307E-01
  rms(prec ) = 0.15719E-01
  weight for this iteration     100.00

 eigenvalues of (default mixing * dielectric matrix)
  average eigenvalue GAMMA=   2.0766
  4.3572  2.8296  2.4862  1.0001  1.0001  0.7866

 Free energy of the ion-electron system (eV)
  ---------------------------------------------------
  alpha Z        PSCENC =         0.43799080
  Ewald energy   TEWEN  =        24.54851968
  -1/2 Hartree   DENC   =      -420.49070189
  -exchange  EXHF       =         0.00000000
  -V(xc)+E(xc)   XCENC  =        34.04851347
  PAW double counting   =       562.43459452     -564.49833462
  entropy T*S    EENTRO =        -0.00000000
  eigenvalues    EBANDS =      -107.92505566
  atomic energy  EATOM  =       457.22046137
  ---------------------------------------------------
  free energy    TOTEN  =       -14.22401233 eV

  energy without entropy =      -14.22401233  energy(sigma->0) =      -14.22401233


--------------------------------------------------------------------------------------------------------




----------------------------------------- Iteration    1(  12)  ---------------------------------------


    POTLOK:  cpu time    0.02: real time    0.02
    SETDIJ:  cpu time    0.00: real time    0.00
     EDDAV:  cpu time    0.01: real time    0.01
       DOS:  cpu time    0.00: real time    0.00
    CHARGE:  cpu time    0.01: real time    0.01
    MIXING:  cpu time    0.00: real time    0.00
    --------------------------------------------
      LOOP:  cpu time    0.03: real time    0.04

 eigenvalue-minimisations  :    32
 total energy-change (2. order) :-0.9625731E-03  (-0.1293758E-03)
 number of electron       8.0000120 magnetization 
 augmentation part        0.6875066 magnetization 

 Broyden mixing:
  rms(total) = 0.27731E-02    rms(broyden)= 0.27695E-02
  rms(prec ) = 0.43079E-02
  weight for this iteration     100.00

 eigenvalues of (default mixing * dielectric matrix)
  average eigenvalue GAMMA=   2.1210
  4.4967  2.7086  2.7086  1.9547  1.0829  0.9476  0.9476

 Free energy of the ion-electron system (eV)
  ---------------------------------------------------
  alpha Z        PSCENC =         0.43799080
  Ewald energy   TEWEN  =        24.54851968
  -1/2 Hartree   DENC   =      -420.18084265
  -exchange  EXHF       =         0.00000000
  -V(xc)+E(xc)   XCENC  =        34.02823040
  PAW double counting   =       560.55383312     -562.61451974
  entropy T*S    EENTRO =        -0.00000000
  eigenvalues    EBANDS =      -108.21864789
  atomic energy  EATOM  =       457.22046137
  ---------------------------------------------------
  free energy    TOTEN  =       -14.22497490 eV

  energy without entropy =      -14.22497490  energy(sigma->0) =      -14.22497490


--------------------------------------------------------------------------------------------------------




----------------------------------------- Iteration    1(  13)  ---------------------------------------


    POTLOK:  cpu time    0.02: real time    0.02
    SETDIJ:  cpu time    0.00: real time    0.00
     EDDAV:  cpu time    0.01: real time    0.01
       DOS:  cpu time    0.00: real time    0.00
    CHARGE:  cpu time    0.01: real time    0.01
    MIXING:  cpu time    0.00: real time    0.00
    --------------------------------------------
      LOOP:  cpu time    0.03: real time    0.03

 eigenvalue-minimisations  :    24
 total energy-change (2. order) :-0.1036504E-02  (-0.1568266E-04)
 number of electron       8.0000120 magnetization 
 augmentation part        0.6878183 magnetization 

 Broyden mixing:
  rms(total) = 0.81725E-03    rms(broyden)= 0.81387E-03
  rms(prec ) = 0.13428E-02
  weight for this iteration     100.00

 eigenvalues of (default mixing * dielectric matrix)
  average eigenvalue GAMMA=   2.1949
  5.7037  3.1985  2.5193  2.3095  1.0562  0.9245  0.9245  0.9229

 Free energy of the ion-electron system (eV)
  ---------------------------------------------------
  alpha Z        PSCENC =         0.43799080
  Ewald energy   TEWEN  =        24.54851968
  -1/2 Hartree   DENC   =      -420.10352361
  -exchange  EXHF       =         0.00000000
  -V(xc)+E(xc)   XCENC  =        34.02285257
  PAW double counting   =       560.33036621     -562.38990131
  entropy T*S    EENTRO =        -0.00000000
  eigenvalues    EBANDS =      -108.29277711
  atomic energy  EATOM  =       457.22046137
  ---------------------------------------------------
  free energy    TOTEN  =       -14.22601141 eV

  energy without entropy =      -14.22601141  energy(sigma->0) =      -14.22601141


--------------------------------------------------------------------------------------------------------




----------------------------------------- Iteration    1(  14)  ---------------------------------------


    POTLOK:  cpu time    0.02: real time    0.02
    SETDIJ:  cpu time    0.00: real time    0.00
     EDDAV:  cpu time    0.01: real time    0.01
       DOS:  cpu time    0.00: real time    0.00
    CHARGE:  cpu time    0.01: real time    0.01
    MIXING:  cpu time    0.00: real time    0.00
    --------------------------------------------
      LOOP:  cpu time    0.03: real time    0.04

 eigenvalue-minimisations  :    32
 total energy-change (2. order) :-0.2101997E-03  (-0.1416837E-05)
 number of electron       8.0000120 magnetization 
 augmentation part        0.6878519 magnetization 

 Broyden mixing:
  rms(total) = 0.49835E-03    rms(broyden)= 0.49805E-03
  rms(prec ) = 0.74323E-03
  weight for this iteration     100.00

 eigenvalues of (default mixing * dielectric matrix)
  average eigenvalue GAMMA=   2.3842
  6.2427  3.9504  2.7505  2.4872  2.0676  1.0863  0.9471  0.9471  0.9788

 Free energy of the ion-electron system (eV)
  ---------------------------------------------------
  alpha Z        PSCENC =         0.43799080
  Ewald energy   TEWEN  =        24.54851968
  -1/2 Hartree   DENC   =      -420.06899377
  -exchange  EXHF       =         0.00000000
  -V(xc)+E(xc)   XCENC  =        34.02081153
  PAW double counting   =       560.09684787     -562.15629190
  entropy T*S    EENTRO =        -0.00000000
  eigenvalues    EBANDS =      -108.32556719
  atomic energy  EATOM  =       457.22046137
  ---------------------------------------------------
  free energy    TOTEN  =       -14.22622161 eV

  energy without entropy =      -14.22622161  energy(sigma->0) =      -14.22622161


--------------------------------------------------------------------------------------------------------




----------------------------------------- Iteration    1(  15)  ---------------------------------------


    POTLOK:  cpu time    0.02: real time    0.02
    SETDIJ:  cpu time    0.00: real time    0.00
     EDDAV:  cpu time    0.01: real time    0.01
       DOS:  cpu time    0.00: real time    0.00
    CHARGE:  cpu time    0.01: real time    0.01
    MIXING:  cpu time    0.00: real time    0.00
    --------------------------------------------
      LOOP:  cpu time    0.03: real time    0.04

 eigenvalue-minimisations  :    32
 total energy-change (2. order) :-0.1253603E-03  (-0.1154727E-05)
 number of electron       8.0000120 magnetization 
 augmentation part        0.6878244 magnetization 

 Broyden mixing:
  rms(total) = 0.87737E-04    rms(broyden)= 0.87704E-04
  rms(prec ) = 0.15433E-03
  weight for this iteration     100.00

 eigenvalues of (default mixing * dielectric matrix)
  average eigenvalue GAMMA=   2.3797
  6.3905  4.2079  3.0167  2.4061  2.4061  0.9477  0.9477  0.9784  1.0850  1.4112

 Free energy of the ion-electron system (eV)
  ---------------------------------------------------
  alpha Z        PSCENC =         0.43799080
  Ewald energy   TEWEN  =        24.54851968
  -1/2 Hartree   DENC   =      -420.06403825
  -exchange  EXHF       =         0.00000000
  -V(xc)+E(xc)   XCENC  =        34.02069569
  PAW double counting   =       559.96833444     -562.02749875
  entropy T*S    EENTRO =        -0.00000000
  eigenvalues    EBANDS =      -108.33081195
  atomic energy  EATOM  =       457.22046137
  ---------------------------------------------------
  free energy    TOTEN  =       -14.22634697 eV

  energy without entropy =      -14.22634697  energy(sigma->0) =      -14.22634697


--------------------------------------------------------------------------------------------------------




----------------------------------------- Iteration    1(  16)  ---------------------------------------


    POTLOK:  cpu time    0.02: real time    0.02
    SETDIJ:  cpu time    0.00: real time    0.00
     EDDAV:  cpu time    0.01: real time    0.01
       DOS:  cpu time    0.00: real time    0.00
    --------------------------------------------
      LOOP:  cpu time    0.03: real time    0.03

 eigenvalue-minimisations  :    32
 total energy-change (2. order) :-0.1023040E-04  (-0.1010159E-06)
 number of electron       8.0000120 magnetization 
 augmentation part        0.6878244 magnetization 

 Free energy of the ion-electron system (eV)
  ---------------------------------------------------
  alpha Z        PSCENC =         0.43799080
  Ewald energy   TEWEN  =        24.54851968
  -1/2 Hartree   DENC   =      -420.06724767
  -exchange  EXHF       =         0.00000000
  -V(xc)+E(xc)   XCENC  =        34.02090894
  PAW double counting   =       559.99534460     -562.05460637
  entropy T*S    EENTRO =        -0.00000000
  eigenvalues    EBANDS =      -108.32772855
  atomic energy  EATOM  =       457.22046137
  ---------------------------------------------------
  free energy    TOTEN  =       -14.22635720 eV

  energy without entropy =      -14.22635720  energy(sigma->0) =      -14.22635720


--------------------------------------------------------------------------------------------------------




 average (electrostatic) potential at core
  the test charge radii are     0.7215  0.5201
  (the norm of the test charge is              1.0000)
       1 -80.4581       2 -44.4993       3 -44.4993
 
 
 
 E-fermi :  -6.7927     XC(G=0):  -0.9794     alpha+bet : -0.2541


 k-point   1 :       0.0000    0.0000    0.0000
  band No.  band energies     occupation 
      1     -25.1256      2.00000
      2     -12.9138      2.00000
      3      -9.0984      2.00000
      4      -7.0260      2.00000
      5      -1.0689      0.00000
      6       1.1265      0.00000
      7       1.2188      0.00000
      8       1.7386      0.00000


--------------------------------------------------------------------------------------------------------


 soft charge-density along one line, spin component           1
         0         1         2         3         4         5         6         7         8         9
 total charge-density along one line
 
 pseudopotential strength for first ion, spin component:           1
 13.785 -16.899  -0.000  -0.000  -0.121   0.000   0.000   0.152
-16.899  20.747   0.000   0.000   0.154  -0.000  -0.000  -0.195
 -0.000   0.000 -10.565   0.000  -0.000  13.097  -0.000   0.000
 -0.000   0.000   0.000 -10.327  -0.000  -0.000  12.778   0.000
 -0.121   0.154  -0.000  -0.000 -10.469   0.000   0.000  12.968
  0.000  -0.000  13.097  -0.000   0.000 -16.164   0.000  -0.000
  0.000  -0.000  -0.000  12.778   0.000   0.000 -15.733  -0.000
  0.152  -0.195   0.000   0.000  12.968  -0.000  -0.000 -15.990
 total augmentation occupancy for first ion, spin component:           1
  2.976   0.555   0.000   0.000   0.412   0.000   0.000   0.169
  0.555   0.151   0.000   0.000   0.408   0.000   0.000   0.080
  0.000   0.000   2.451   0.000   0.000   0.485   0.000   0.000
  0.000   0.000   0.000   2.205   0.000   0.000   0.170   0.000
  0.412   0.408   0.000   0.000   2.353   0.000   0.000   0.357
  0.000   0.000   0.485   0.000   0.000   0.096   0.000   0.000
  0.000   0.000   0.000   0.170   0.000   0.000   0.013   0.000
  0.169   0.080   0.000   0.000   0.357   0.000   0.000   0.058


------------------------ aborting loop because EDIFF is reached ----------------------------------------


 


 total charge     
 
# of ion     s       p       d       tot
----------------------------------------
  1        1.591   3.617   0.000   5.208
  2        0.628   0.114   0.000   0.743
  3        0.628   0.114   0.000   0.743
------------------------------------------------
tot        2.848   3.846   0.000   6.694
 
    CHARGE:  cpu time    0.01: real time    0.01
    FORLOC:  cpu time    0.00: real time    0.00
    FORNL :  cpu time    0.00: real time    0.00
    STRESS:  cpu time    0.01: real time    0.01
    FORCOR:  cpu time    0.02: real time    0.02
    FORHAR:  cpu time    0.01: real time    0.01
    MIXING:  cpu time    0.00: real time    0.00

  FORCE on cell =-STRESS in cart. coord.  units (eV):
  Direction    XX          YY          ZZ          XY          YZ          ZX
  --------------------------------------------------------------------------------------
  Alpha Z     0.43799     0.43799     0.43799
  Ewald      12.62220    66.79641   -54.87014     0.00000    -0.00000     0.00000
  Hartree   141.01174   150.35920   128.68747    -0.00000    -0.00000    -0.00000
  E(xc)     -36.12075   -35.92381   -36.41740    -0.00000     0.00000    -0.00000
  Local    -243.02195  -291.42440  -183.89967    -0.00000     0.00000    -0.00000
  n-local   -31.29893   -30.44408   -31.18628     0.00000    -0.00000     0.00000
  augment     6.72288     5.76825     8.13688    -0.00000    -0.00000    -0.00000
  Kinetic   148.87392   133.78610   168.25416     0.00000     0.00000    -0.00000
  Fock        0.00000     0.00000     0.00000     0.00000     0.00000     0.00000
  -------------------------------------------------------------------------------------
  Total      -0.77289    -0.64433    -0.85698     0.00000     0.00000     0.00000
  in kB      -2.41858    -2.01626    -2.68171     0.00000     0.00000     0.00000
  external pressure =       -2.37 kB  Pullay stress =        0.00 kB


 VOLUME and BASIS-vectors are now :
 -----------------------------------------------------------------------------
  energy-cutoff  :      400.00
  volume of cell :      512.00
      direct lattice vectors                 reciprocal lattice vectors
     8.000000000  0.000000000  0.000000000     0.125000000  0.000000000  0.000000000
     0.000000000  8.000000000  0.000000000     0.000000000  0.125000000  0.000000000
     0.000000000  0.000000000  8.000000000     0.000000000  0.000000000  0.125000000

  length of vectors
     8.000000000  8.000000000  8.000000000     0.125000000  0.125000000  0.125000000


 FORCES acting on ions
    electron-ion (+dipol)            ewald-force                    non-local-force                 convergence-correction
 -----------------------------------------------------------------------------------------------
   0.622E+02 0.427E-14 -.533E-14   -.111E+03 0.127E-13 -.618E-16   0.491E+02 0.000E+00 0.000E+00   -.862E-03 -.264E-13 -.298E-13
   -.508E+02 0.708E+02 -.184E-06   0.557E+02 -.776E+02 -.108E-17   -.486E+01 0.672E+01 0.000E+00   -.316E-03 0.381E-03 -.389E-14
   -.508E+02 -.708E+02 0.205E-06   0.557E+02 0.776E+02 0.135E-17   -.486E+01 -.672E+01 0.000E+00   -.316E-03 -.381E-03 -.255E-14
 -----------------------------------------------------------------------------------------------
   -.394E+02 -.142E-13 0.217E-07   0.711E-14 0.000E+00 -.615E-16   0.394E+02 0.000E+00 0.000E+00   -.149E-02 -.289E-13 -.363E-13
 
 
 POSITION                                       TOTAL-FORCE (eV/Angst)
 -----------------------------------------------------------------------------------
      0.00000      0.00000      0.00000        -0.046544      0.000000      0.000000
      0.59608      7.23229      0.00000         0.023272     -0.036901      0.000000
      0.59608      0.76771      0.00000         0.023272      0.036901      0.000000
 -----------------------------------------------------------------------------------
    total drift:                               -0.001069     -0.000000      0.000000


--------------------------------------------------------------------------------------------------------



  FREE ENERGIE OF THE ION-ELECTRON SYSTEM (eV)
  ---------------------------------------------------
  free  energy   TOTEN  =       -14.226357 eV

  energy  without entropy=      -14.226357  energy(sigma->0) =      -14.226357
 


--------------------------------------------------------------------------------------------------------


    POTLOK:  cpu time    0.06: real time    0.06


--------------------------------------------------------------------------------------------------------


 writing wavefunctions
     LOOP+:  cpu time    0.60: real time    0.68
    4ORBIT:  cpu time    0.00: real time    0.00
 


 total charge     
 
# of ion     s       p       d       tot
----------------------------------------
  1        1.591   3.617   0.000   5.208
  2        0.628   0.114   0.000   0.743
  3        0.628   0.114   0.000   0.743
------------------------------------------------
tot        2.848   3.846   0.000   6.694
 

 total amount of memory used by VASP on root node    34017. kBytes
========================================================================

   base      :      30000. kBytes
   nonlr-proj:         50. kBytes
   fftplans  :       1459. kBytes
   grid      :       2470. kBytes
   one-center:          1. kBytes
   wavefun   :         37. kBytes
 
  
  
 General timing and accounting informations for this job:
 ========================================================
  
                  Total CPU time used (sec):        1.717
                            User time (sec):        1.497
                          System time (sec):        0.220
                         Elapsed time (sec):        2.012
  
                   Maximum memory used (kb):       48264.
                   Average memory used (kb):           0.
  
                          Minor page faults:        34966
                          Major page faults:            8
                 Voluntary context switches:         1847
